
     Program BANDS v.6.7MaX starts on 14Mar2023 at  3:32:27 

     This program is part of the open-source Quantum ESPRESSO suite
     for quantum simulation of materials; please cite
         "P. Giannozzi et al., J. Phys.:Condens. Matter 21 395502 (2009);
         "P. Giannozzi et al., J. Phys.:Condens. Matter 29 465901 (2017);
          URL http://www.quantum-espresso.org", 
     in publications or presentations arising from this work. More details at
     http://www.quantum-espresso.org/quote

     Parallel version (MPI), running on    16 processors

     MPI processes distributed on     1 nodes
     R & G space division:  proc/nbgrp/npool/nimage =      16

     Reading xml data from directory:

     ./AlN.save/
     Message from routine read_pp_mesh:
     mesh size missing, using the one in header
     Message from routine read_pp_mesh:
     mesh size missing, using the one in header

     IMPORTANT: XC functional enforced from input :
     Exchange-correlation= PBE
                           (   1   4   3   4   0   0   0)
     Any further DFT definition will be discarded
     Please, verify this is what you really want


     Parallelization info
     --------------------
     sticks:   dense  smooth     PW     G-vecs:    dense   smooth      PW
     Min          42      42     12                 6180     6180     982
     Max          43      43     13                 6205     6205    1009
     Sum         673     673    199                99077    99077   15881

     Reading collected, re-writing distributed wavefunctions
     high-symmetry point:  0.0000 0.0000 0.0000   x coordinate   0.0000
     high-symmetry point:  0.5014 0.2895 0.0000   x coordinate   0.5789
     high-symmetry point:  0.3342 0.5789 0.0000   x coordinate   0.9131
     high-symmetry point:  0.0000 0.0000 0.0000   x coordinate   1.5816

     Plottable bands (eV) written to file Bandx.dat.gnu
     Bands written to file Bandx.dat

 **************************************************************************

                    xk=(   0.00000,   0.00000,   0.00000  )

     double point group C_3v (3m)  
     there are  6 classes and  3 irreducible representations
     the character table:

       E     -E    2C3   -2C3  3s_v  -3s_v
                                          
G_4    2.00 -2.00  1.00 -1.00  0.00  0.00
G_5    1.00 -1.00 -1.00  1.00  0.00  0.00
G_6    1.00 -1.00 -1.00  1.00  0.00  0.00

     imaginary part

       E     -E    2C3   -2C3  3s_v  -3s_v
                                          
G_4    0.00  0.00  0.00  0.00  0.00  0.00
G_5    0.00  0.00  0.00  0.00  1.00 -1.00
G_6    0.00  0.00  0.00  0.00 -1.00  1.00

     the symmetry operations in each class and the name of the first element:

     E             1
                                                                 
     -E           -1
                                                                 
     2C3           2    3
                                                                 
     -2C3         -2   -3
                                                                 
     3s_v          4   -5   -6
                                                                 
     3s_v          5    6   -4
                                                                 

     Band symmetry, C_3v (3m)   double point group:

     e(  1 -  2) =    -17.59001  eV     2   --> G_4   L_6      
     e(  3 -  4) =     -6.18446  eV     2   --> G_4   L_6      
     e(  5 -  6) =     -4.63765  eV     2   --> G_4   L_6      
     e(  7 -  8) =     -4.62221  eV     2   --> G_5   L_4      
     e(  7 -  8) =     -4.62221  eV     2   --> G_6   L_5      
     e(  9 - 10) =     -1.00859  eV     2   --> G_4   L_6      
     e( 11 - 12) =      0.96058  eV     2   --> G_4   L_6      
     e( 13 - 14) =      1.39567  eV     2   --> G_4   L_6      
     e( 15 - 16) =      2.01291  eV     2   --> G_4   L_6      
     e( 17 - 18) =      2.11119  eV     2   --> G_4   L_6      
     e( 19 - 20) =      3.40345  eV     2   --> G_4   L_6      
     e( 21 - 22) =      3.59171  eV     2   --> G_4   L_6      
     e( 23 - 24) =      5.28660  eV     2   --> G_4   L_6      
     e( 25 - 26) =      5.50666  eV     2   --> G_4   L_6      
     e( 27 - 28) =      7.62332  eV     2   --> G_4   L_6      
     e( 29 - 30) =      7.90902  eV     2   --> G_4   L_6      
     e( 31 - 32) =      8.05928  eV     2   --> G_4   L_6      
     e( 33 - 34) =      8.08644  eV     2   --> G_5   L_4      
     e( 33 - 34) =      8.08644  eV     2   --> G_6   L_5      
     e( 35 - 36) =     10.49053  eV     2   --> G_4   L_6      
     e( 37 - 38) =     10.94273  eV     2   --> G_4   L_6      
     e( 39 - 40) =     13.08207  eV     2   --> G_4   L_6      
     e( 41 - 42) =     14.14168  eV     2   --> G_4   L_6      
     e( 43 - 44) =     14.14212  eV     2   --> G_5   L_4      
     e( 43 - 44) =     14.14212  eV     2   --> G_6   L_5      
     e( 45 - 46) =     14.58842  eV     2   --> G_4   L_6      
     e( 47 - 48) =     15.20595  eV     2   --> G_4   L_6      
     e( 49 - 52) =     17.71956  eV     4   --> G_4   L_6      
     e( 49 - 52) =     17.71956  eV     4   --> G_5   L_4      
     e( 49 - 52) =     17.71956  eV     4   --> G_6   L_5      
     e( 53 - 54) =     17.76383  eV     2   --> G_4   L_6      
     e( 55 - 56) =     19.16169  eV     2   --> G_4   L_6      
     e( 57 - 58) =     19.32661  eV     2   --> G_4   L_6      
     e( 59 - 60) =     19.70360  eV     2   --> G_4   L_6      
     e( 61 - 62) =     19.70640  eV     2   --> G_5   L_4      
     e( 61 - 62) =     19.70640  eV     2   --> G_6   L_5      
     e( 63 - 64) =     20.92478  eV     2   --> G_4   L_6      
     e( 65 - 66) =     21.09372  eV     2   --> G_4   L_6      
     e( 67 - 68) =     21.09537  eV     2   --> G_5   L_4      
     e( 67 - 68) =     21.09537  eV     2   --> G_6   L_5      
     e( 69 - 70) =     21.22035  eV     2   --> G_4   L_6      
     e( 71 - 72) =     21.66412  eV     2   --> G_4   L_6      
     e( 73 - 76) =     21.77917  eV     4   --> G_4   L_6      
     e( 73 - 76) =     21.77917  eV     4   --> G_5   L_4      
     e( 73 - 76) =     21.77917  eV     4   --> G_6   L_5      
     e( 77 - 78) =     21.96714  eV     2   --> G_4   L_6      
     e( 79 - 80) =     21.96735  eV     2   --> G_5   L_4      
     e( 79 - 80) =     21.96735  eV     2   --> G_6   L_5      
     e( 81 - 84) =     22.03527  eV     4   --> G_4   L_6      
     e( 81 - 84) =     22.03527  eV     4   --> G_5   L_4      
     e( 81 - 84) =     22.03527  eV     4   --> G_6   L_5      
     e( 85 - 86) =     22.04432  eV     2   --> G_4   L_6      
     e( 87 - 88) =     22.06722  eV     2   --> G_4   L_6      
     e( 89 - 90) =     22.06741  eV     2   --> G_5   L_4      
     e( 89 - 90) =     22.06741  eV     2   --> G_6   L_5      
     e( 91 - 92) =     22.08344  eV     2   --> G_4   L_6      
     e( 93 - 94) =     22.20332  eV     2   --> G_4   L_6      
     e( 95 - 96) =     22.54072  eV     2   --> G_4   L_6      
     e( 97 - 98) =     22.73589  eV     2   --> G_4   L_6      
     e( 99 -100) =     22.73694  eV     2   --> G_5   L_4      
     e( 99 -100) =     22.73694  eV     2   --> G_6   L_5      

 **************************************************************************

 **************************************************************************

                    xk=(   0.01003,   0.00579,   0.00000  )

     double point group C_s (m)    
     there are  4 classes and  2 irreducible representations
     the character table:

       E     -E    s     -s   
                              
G_3    1.00 -1.00  0.00  0.00
G_4    1.00 -1.00  0.00  0.00

     imaginary part

       E     -E    s     -s   
                              
G_3    0.00  0.00  1.00 -1.00
G_4    0.00  0.00 -1.00  1.00

     the symmetry operations in each class and the name of the first element:

     E             1
                                                                 
     -E           -1
                                                                 
     s             2
                                                                 
     -s           -2
                                                                 

     Band symmetry, C_s (m)     double point group:

     e(  1 -  2) =    -17.58893  eV     2   --> G_3            
     e(  1 -  2) =    -17.58893  eV     2   --> G_4            
     e(  3 -  4) =     -6.18308  eV     2   --> G_3            
     e(  3 -  4) =     -6.18308  eV     2   --> G_4            
     e(  5 -  6) =     -4.64150  eV     2   --> G_3            
     e(  5 -  6) =     -4.64150  eV     2   --> G_4            
     e(  7 -  8) =     -4.62523  eV     2   --> G_3            
     e(  7 -  8) =     -4.62523  eV     2   --> G_4            
     e(  9 - 10) =     -1.00445  eV     2   --> G_3            
     e(  9 - 10) =     -1.00445  eV     2   --> G_4            
     e( 11 - 12) =      0.96222  eV     2   --> G_3            
     e( 11 - 12) =      0.96222  eV     2   --> G_4            
     e( 13 - 14) =      1.39786  eV     2   --> G_3            
     e( 13 - 14) =      1.39786  eV     2   --> G_4            
     e( 15 - 16) =      2.01541  eV     2   --> G_3            
     e( 15 - 16) =      2.01541  eV     2   --> G_4            
     e( 17 - 18) =      2.11296  eV     2   --> G_3            
     e( 17 - 18) =      2.11296  eV     2   --> G_4            
     e( 19 - 20) =      3.40603  eV     2   --> G_3            
     e( 19 - 20) =      3.40603  eV     2   --> G_4            
     e( 21 - 22) =      3.59303  eV     2   --> G_3            
     e( 21 - 22) =      3.59303  eV     2   --> G_4            
     e( 23 - 24) =      5.28902  eV     2   --> G_3            
     e( 23 - 24) =      5.28902  eV     2   --> G_4            
     e( 25 - 26) =      5.50747  eV     2   --> G_3            
     e( 25 - 26) =      5.50747  eV     2   --> G_4            
     e( 27 - 28) =      7.62229  eV     2   --> G_3            
     e( 27 - 28) =      7.62229  eV     2   --> G_4            
     e( 29 - 30) =      7.90960  eV     2   --> G_3            
     e( 29 - 30) =      7.90960  eV     2   --> G_4            
     e( 31 - 32) =      8.05742  eV     2   --> G_3            
     e( 31 - 32) =      8.05742  eV     2   --> G_4            
     e( 33 - 34) =      8.08595  eV     2   --> G_3            
     e( 33 - 34) =      8.08595  eV     2   --> G_4            
     e( 35 - 36) =     10.49533  eV     2   --> G_3            
     e( 35 - 36) =     10.49533  eV     2   --> G_4            
     e( 37 - 38) =     10.94275  eV     2   --> G_3            
     e( 37 - 38) =     10.94275  eV     2   --> G_4            
     e( 39 - 40) =     13.09032  eV     2   --> G_3            
     e( 39 - 40) =     13.09032  eV     2   --> G_4            
     e( 41 - 42) =     14.11514  eV     2   --> G_3            
     e( 41 - 42) =     14.11514  eV     2   --> G_4            
     e( 43 - 44) =     14.13276  eV     2   --> G_3            
     e( 43 - 44) =     14.13276  eV     2   --> G_4            
     e( 45 - 46) =     14.60427  eV     2   --> G_3            
     e( 45 - 46) =     14.60427  eV     2   --> G_4            
     e( 47 - 48) =     15.20906  eV     2   --> G_3            
     e( 47 - 48) =     15.20906  eV     2   --> G_4            
     e( 49 - 50) =     17.58446  eV     2   --> G_3            
     e( 49 - 50) =     17.58446  eV     2   --> G_4            
     e( 51 - 52) =     17.73193  eV     2   --> G_3            
     e( 51 - 52) =     17.73193  eV     2   --> G_4            
     e( 53 - 54) =     17.90159  eV     2   --> G_3            
     e( 53 - 54) =     17.90159  eV     2   --> G_4            
     e( 55 - 56) =     19.15319  eV     2   --> G_3            
     e( 55 - 56) =     19.15319  eV     2   --> G_4            
     e( 57 - 58) =     19.34245  eV     2   --> G_3            
     e( 57 - 58) =     19.34245  eV     2   --> G_4            
     e( 59 - 60) =     19.65151  eV     2   --> G_3            
     e( 59 - 60) =     19.65151  eV     2   --> G_4            
     e( 61 - 62) =     19.68496  eV     2   --> G_3            
     e( 61 - 62) =     19.68496  eV     2   --> G_4            
     e( 63 - 64) =     20.90491  eV     2   --> G_3            
     e( 63 - 64) =     20.90491  eV     2   --> G_4            
     e( 65 - 66) =     21.06287  eV     2   --> G_3            
     e( 65 - 66) =     21.06287  eV     2   --> G_4            
     e( 67 - 68) =     21.10843  eV     2   --> G_3            
     e( 67 - 68) =     21.10843  eV     2   --> G_4            
     e( 69 - 70) =     21.14498  eV     2   --> G_3            
     e( 69 - 70) =     21.14498  eV     2   --> G_4            
     e( 71 - 72) =     21.61328  eV     2   --> G_3            
     e( 71 - 72) =     21.61328  eV     2   --> G_4            
     e( 73 - 74) =     21.62822  eV     2   --> G_3            
     e( 73 - 74) =     21.62822  eV     2   --> G_4            
     e( 75 - 76) =     21.67435  eV     2   --> G_3            
     e( 75 - 76) =     21.67435  eV     2   --> G_4            
     e( 77 - 78) =     21.73121  eV     2   --> G_3            
     e( 77 - 78) =     21.73121  eV     2   --> G_4            
     e( 79 - 80) =     21.82352  eV     2   --> G_3            
     e( 79 - 80) =     21.82352  eV     2   --> G_4            
     e( 81 - 82) =     21.95336  eV     2   --> G_3            
     e( 81 - 82) =     21.95336  eV     2   --> G_4            
     e( 83 - 84) =     21.98124  eV     2   --> G_3            
     e( 83 - 84) =     21.98124  eV     2   --> G_4            
     e( 85 - 86) =     22.13922  eV     2   --> G_3            
     e( 85 - 86) =     22.13922  eV     2   --> G_4            
     e( 87 - 88) =     22.21291  eV     2   --> G_3            
     e( 87 - 88) =     22.21291  eV     2   --> G_4            
     e( 89 - 90) =     22.26630  eV     2   --> G_3            
     e( 89 - 90) =     22.26630  eV     2   --> G_4            
     e( 91 - 92) =     22.29084  eV     2   --> G_3            
     e( 91 - 92) =     22.29084  eV     2   --> G_4            
     e( 93 - 94) =     22.44571  eV     2   --> G_3            
     e( 93 - 94) =     22.44571  eV     2   --> G_4            
     e( 95 - 96) =     22.51392  eV     2   --> G_3            
     e( 95 - 96) =     22.51392  eV     2   --> G_4            
     e( 97 - 98) =     22.60014  eV     2   --> G_3            
     e( 97 - 98) =     22.60014  eV     2   --> G_4            
     e( 99 -100) =     22.69307  eV     2   --> G_3            
     e( 99 -100) =     22.69307  eV     2   --> G_4            

 **************************************************************************

 **************************************************************************

                    xk=(   0.02005,   0.01158,   0.00000  )

     Band symmetry, C_s (m)     double point group:

     e(  1 -  2) =    -17.58569  eV     2   --> G_3            
     e(  1 -  2) =    -17.58569  eV     2   --> G_4            
     e(  3 -  4) =     -6.17894  eV     2   --> G_3            
     e(  3 -  4) =     -6.17894  eV     2   --> G_4            
     e(  5 -  6) =     -4.65649  eV     2   --> G_3            
     e(  5 -  6) =     -4.65649  eV     2   --> G_4            
     e(  7 -  8) =     -4.63074  eV     2   --> G_3            
     e(  7 -  8) =     -4.63074  eV     2   --> G_4            
     e(  9 - 10) =     -0.99211  eV     2   --> G_3            
     e(  9 - 10) =     -0.99211  eV     2   --> G_4            
     e( 11 - 12) =      0.96715  eV     2   --> G_3            
     e( 11 - 12) =      0.96715  eV     2   --> G_4            
     e( 13 - 14) =      1.40443  eV     2   --> G_3            
     e( 13 - 14) =      1.40443  eV     2   --> G_4            
     e( 15 - 16) =      2.02289  eV     2   --> G_3            
     e( 15 - 16) =      2.02289  eV     2   --> G_4            
     e( 17 - 18) =      2.11826  eV     2   --> G_3            
     e( 17 - 18) =      2.11826  eV     2   --> G_4            
     e( 19 - 20) =      3.41377  eV     2   --> G_3            
     e( 19 - 20) =      3.41377  eV     2   --> G_4            
     e( 21 - 22) =      3.59699  eV     2   --> G_3            
     e( 21 - 22) =      3.59699  eV     2   --> G_4            
     e( 23 - 24) =      5.29628  eV     2   --> G_3            
     e( 23 - 24) =      5.29628  eV     2   --> G_4            
     e( 25 - 26) =      5.50987  eV     2   --> G_3            
     e( 25 - 26) =      5.50987  eV     2   --> G_4            
     e( 27 - 28) =      7.61857  eV     2   --> G_3            
     e( 27 - 28) =      7.61857  eV     2   --> G_4            
     e( 29 - 30) =      7.91133  eV     2   --> G_3            
     e( 29 - 30) =      7.91133  eV     2   --> G_4            
     e( 31 - 32) =      8.04629  eV     2   --> G_3            
     e( 31 - 32) =      8.04629  eV     2   --> G_4            
     e( 33 - 34) =      8.09107  eV     2   --> G_3            
     e( 33 - 34) =      8.09107  eV     2   --> G_4            
     e( 35 - 36) =     10.50951  eV     2   --> G_3            
     e( 35 - 36) =     10.50951  eV     2   --> G_4            
     e( 37 - 38) =     10.94279  eV     2   --> G_3            
     e( 37 - 38) =     10.94279  eV     2   --> G_4            
     e( 39 - 40) =     13.11490  eV     2   --> G_3            
     e( 39 - 40) =     13.11490  eV     2   --> G_4            
     e( 41 - 42) =     14.04384  eV     2   --> G_3            
     e( 41 - 42) =     14.04384  eV     2   --> G_4            
     e( 43 - 44) =     14.10571  eV     2   --> G_3            
     e( 43 - 44) =     14.10571  eV     2   --> G_4            
     e( 45 - 46) =     14.64302  eV     2   --> G_3            
     e( 45 - 46) =     14.64302  eV     2   --> G_4            
     e( 47 - 48) =     15.21837  eV     2   --> G_3            
     e( 47 - 48) =     15.21837  eV     2   --> G_4            
     e( 49 - 50) =     17.43790  eV     2   --> G_3            
     e( 49 - 50) =     17.43790  eV     2   --> G_4            
     e( 51 - 52) =     17.76859  eV     2   --> G_3            
     e( 51 - 52) =     17.76859  eV     2   --> G_4            
     e( 53 - 54) =     18.05487  eV     2   --> G_3            
     e( 53 - 54) =     18.05487  eV     2   --> G_4            
     e( 55 - 56) =     19.11719  eV     2   --> G_3            
     e( 55 - 56) =     19.11719  eV     2   --> G_4            
     e( 57 - 58) =     19.39018  eV     2   --> G_3            
     e( 57 - 58) =     19.39018  eV     2   --> G_4            
     e( 59 - 60) =     19.52296  eV     2   --> G_3            
     e( 59 - 60) =     19.52296  eV     2   --> G_4            
     e( 61 - 62) =     19.62796  eV     2   --> G_3            
     e( 61 - 62) =     19.62796  eV     2   --> G_4            
     e( 63 - 64) =     20.76227  eV     2   --> G_3            
     e( 63 - 64) =     20.76227  eV     2   --> G_4            
     e( 65 - 66) =     20.93337  eV     2   --> G_3            
     e( 65 - 66) =     20.93337  eV     2   --> G_4            
     e( 67 - 68) =     21.06009  eV     2   --> G_3            
     e( 67 - 68) =     21.06009  eV     2   --> G_4            
     e( 69 - 70) =     21.14196  eV     2   --> G_3            
     e( 69 - 70) =     21.14196  eV     2   --> G_4            
     e( 71 - 72) =     21.31991  eV     2   --> G_3            
     e( 71 - 72) =     21.31991  eV     2   --> G_4            
     e( 73 - 74) =     21.37673  eV     2   --> G_3            
     e( 73 - 74) =     21.37673  eV     2   --> G_4            
     e( 75 - 76) =     21.49993  eV     2   --> G_3            
     e( 75 - 76) =     21.49993  eV     2   --> G_4            
     e( 77 - 78) =     21.63197  eV     2   --> G_3            
     e( 77 - 78) =     21.63197  eV     2   --> G_4            
     e( 79 - 80) =     21.65068  eV     2   --> G_3            
     e( 79 - 80) =     21.65068  eV     2   --> G_4            
     e( 81 - 82) =     21.94234  eV     2   --> G_3            
     e( 81 - 82) =     21.94234  eV     2   --> G_4            
     e( 83 - 84) =     22.03335  eV     2   --> G_3            
     e( 83 - 84) =     22.03335  eV     2   --> G_4            
     e( 85 - 86) =     22.21432  eV     2   --> G_3            
     e( 85 - 86) =     22.21432  eV     2   --> G_4            
     e( 87 - 88) =     22.26726  eV     2   --> G_3            
     e( 87 - 88) =     22.26726  eV     2   --> G_4            
     e( 89 - 90) =     22.29740  eV     2   --> G_3            
     e( 89 - 90) =     22.29740  eV     2   --> G_4            
     e( 91 - 92) =     22.37529  eV     2   --> G_3            
     e( 91 - 92) =     22.37529  eV     2   --> G_4            
     e( 93 - 94) =     22.50711  eV     2   --> G_3            
     e( 93 - 94) =     22.50711  eV     2   --> G_4            
     e( 95 - 96) =     22.61918  eV     2   --> G_3            
     e( 95 - 96) =     22.61918  eV     2   --> G_4            
     e( 97 - 98) =     22.62036  eV     2   --> G_3            
     e( 97 - 98) =     22.62036  eV     2   --> G_4            
     e( 99 -100) =     22.64300  eV     2   --> G_3            
     e( 99 -100) =     22.64300  eV     2   --> G_4            

 **************************************************************************

 **************************************************************************

                    xk=(   0.03008,   0.01737,   0.00000  )

     Band symmetry, C_s (m)     double point group:

     e(  1 -  2) =    -17.58029  eV     2   --> G_3            
     e(  1 -  2) =    -17.58029  eV     2   --> G_4            
     e(  3 -  4) =     -6.17205  eV     2   --> G_3            
     e(  3 -  4) =     -6.17205  eV     2   --> G_4            
     e(  5 -  6) =     -4.68480  eV     2   --> G_3            
     e(  5 -  6) =     -4.68480  eV     2   --> G_4            
     e(  7 -  8) =     -4.63622  eV     2   --> G_3            
     e(  7 -  8) =     -4.63622  eV     2   --> G_4            
     e(  9 - 10) =     -0.97183  eV     2   --> G_3            
     e(  9 - 10) =     -0.97183  eV     2   --> G_4            
     e( 11 - 12) =      0.97533  eV     2   --> G_3            
     e( 11 - 12) =      0.97533  eV     2   --> G_4            
     e( 13 - 14) =      1.41537  eV     2   --> G_3            
     e( 13 - 14) =      1.41537  eV     2   --> G_4            
     e( 15 - 16) =      2.03533  eV     2   --> G_3            
     e( 15 - 16) =      2.03533  eV     2   --> G_4            
     e( 17 - 18) =      2.12710  eV     2   --> G_3            
     e( 17 - 18) =      2.12710  eV     2   --> G_4            
     e( 19 - 20) =      3.42663  eV     2   --> G_3            
     e( 19 - 20) =      3.42663  eV     2   --> G_4            
     e( 21 - 22) =      3.60355  eV     2   --> G_3            
     e( 21 - 22) =      3.60355  eV     2   --> G_4            
     e( 23 - 24) =      5.30835  eV     2   --> G_3            
     e( 23 - 24) =      5.30835  eV     2   --> G_4            
     e( 25 - 26) =      5.51387  eV     2   --> G_3            
     e( 25 - 26) =      5.51387  eV     2   --> G_4            
     e( 27 - 28) =      7.61004  eV     2   --> G_3            
     e( 27 - 28) =      7.61004  eV     2   --> G_4            
     e( 29 - 30) =      7.91420  eV     2   --> G_3            
     e( 29 - 30) =      7.91420  eV     2   --> G_4            
     e( 31 - 32) =      8.02465  eV     2   --> G_3            
     e( 31 - 32) =      8.02465  eV     2   --> G_4            
     e( 33 - 34) =      8.10616  eV     2   --> G_3            
     e( 33 - 34) =      8.10616  eV     2   --> G_4            
     e( 35 - 36) =     10.53241  eV     2   --> G_3            
     e( 35 - 36) =     10.53241  eV     2   --> G_4            
     e( 37 - 38) =     10.94280  eV     2   --> G_3            
     e( 37 - 38) =     10.94280  eV     2   --> G_4            
     e( 39 - 40) =     13.15531  eV     2   --> G_3            
     e( 39 - 40) =     13.15531  eV     2   --> G_4            
     e( 41 - 42) =     13.94271  eV     2   --> G_3            
     e( 41 - 42) =     13.94271  eV     2   --> G_4            
     e( 43 - 44) =     14.06189  eV     2   --> G_3            
     e( 43 - 44) =     14.06189  eV     2   --> G_4            
     e( 45 - 46) =     14.69050  eV     2   --> G_3            
     e( 45 - 46) =     14.69050  eV     2   --> G_4            
     e( 47 - 48) =     15.23383  eV     2   --> G_3            
     e( 47 - 48) =     15.23383  eV     2   --> G_4            
     e( 49 - 50) =     17.30351  eV     2   --> G_3            
     e( 49 - 50) =     17.30351  eV     2   --> G_4            
     e( 51 - 52) =     17.82830  eV     2   --> G_3            
     e( 51 - 52) =     17.82830  eV     2   --> G_4            
     e( 53 - 54) =     18.19697  eV     2   --> G_3            
     e( 53 - 54) =     18.19697  eV     2   --> G_4            
     e( 55 - 56) =     19.01380  eV     2   --> G_3            
     e( 55 - 56) =     19.01380  eV     2   --> G_4            
     e( 57 - 58) =     19.39655  eV     2   --> G_3            
     e( 57 - 58) =     19.39655  eV     2   --> G_4            
     e( 59 - 60) =     19.46926  eV     2   --> G_3            
     e( 59 - 60) =     19.46926  eV     2   --> G_4            
     e( 61 - 62) =     19.54194  eV     2   --> G_3            
     e( 61 - 62) =     19.54194  eV     2   --> G_4            
     e( 63 - 64) =     20.55203  eV     2   --> G_3            
     e( 63 - 64) =     20.55203  eV     2   --> G_4            
     e( 65 - 66) =     20.63494  eV     2   --> G_3            
     e( 65 - 66) =     20.63494  eV     2   --> G_4            
     e( 67 - 68) =     20.83753  eV     2   --> G_3            
     e( 67 - 68) =     20.83753  eV     2   --> G_4            
     e( 69 - 70) =     21.16461  eV     2   --> G_3            
     e( 69 - 70) =     21.16461  eV     2   --> G_4            
     e( 71 - 72) =     21.17455  eV     2   --> G_3            
     e( 71 - 72) =     21.17455  eV     2   --> G_4            
     e( 73 - 74) =     21.23756  eV     2   --> G_3            
     e( 73 - 74) =     21.23756  eV     2   --> G_4            
     e( 75 - 76) =     21.31792  eV     2   --> G_3            
     e( 75 - 76) =     21.31792  eV     2   --> G_4            
     e( 77 - 78) =     21.47108  eV     2   --> G_3            
     e( 77 - 78) =     21.47108  eV     2   --> G_4            
     e( 79 - 80) =     21.50749  eV     2   --> G_3            
     e( 79 - 80) =     21.50749  eV     2   --> G_4            
     e( 81 - 82) =     21.73077  eV     2   --> G_3            
     e( 81 - 82) =     21.73077  eV     2   --> G_4            
     e( 83 - 84) =     22.00142  eV     2   --> G_3            
     e( 83 - 84) =     22.00142  eV     2   --> G_4            
     e( 85 - 86) =     22.08734  eV     2   --> G_3            
     e( 85 - 86) =     22.08734  eV     2   --> G_4            
     e( 87 - 88) =     22.22226  eV     2   --> G_3            
     e( 87 - 88) =     22.22226  eV     2   --> G_4            
     e( 89 - 90) =     22.33086  eV     2   --> G_3            
     e( 89 - 90) =     22.33086  eV     2   --> G_4            
     e( 91 - 92) =     22.38806  eV     2   --> G_3            
     e( 91 - 92) =     22.38806  eV     2   --> G_4            
     e( 93 - 94) =     22.60822  eV     2   --> G_3            
     e( 93 - 94) =     22.60822  eV     2   --> G_4            
     e( 95 - 96) =     22.62949  eV     2   --> G_3            
     e( 95 - 96) =     22.62949  eV     2   --> G_4            
     e( 97 - 98) =     22.64786  eV     2   --> G_3            
     e( 97 - 98) =     22.64786  eV     2   --> G_4            
     e( 99 -100) =     22.68893  eV     2   --> G_3            
     e( 99 -100) =     22.68893  eV     2   --> G_4            

 **************************************************************************

 **************************************************************************

                    xk=(   0.04011,   0.02316,   0.00000  )

     Band symmetry, C_s (m)     double point group:

     e(  1 -  2) =    -17.57274  eV     2   --> G_3            
     e(  1 -  2) =    -17.57274  eV     2   --> G_4            
     e(  3 -  4) =     -6.16242  eV     2   --> G_3            
     e(  3 -  4) =     -6.16242  eV     2   --> G_4            
     e(  5 -  6) =     -4.72505  eV     2   --> G_3            
     e(  5 -  6) =     -4.72505  eV     2   --> G_4            
     e(  7 -  8) =     -4.64256  eV     2   --> G_3            
     e(  7 -  8) =     -4.64256  eV     2   --> G_4            
     e(  9 - 10) =     -0.94396  eV     2   --> G_3            
     e(  9 - 10) =     -0.94396  eV     2   --> G_4            
     e( 11 - 12) =      0.98676  eV     2   --> G_3            
     e( 11 - 12) =      0.98676  eV     2   --> G_4            
     e( 13 - 14) =      1.43066  eV     2   --> G_3            
     e( 13 - 14) =      1.43066  eV     2   --> G_4            
     e( 15 - 16) =      2.05268  eV     2   --> G_3            
     e( 15 - 16) =      2.05268  eV     2   --> G_4            
     e( 17 - 18) =      2.13944  eV     2   --> G_3            
     e( 17 - 18) =      2.13944  eV     2   --> G_4            
     e( 19 - 20) =      3.44457  eV     2   --> G_3            
     e( 19 - 20) =      3.44457  eV     2   --> G_4            
     e( 21 - 22) =      3.61271  eV     2   --> G_3            
     e( 21 - 22) =      3.61271  eV     2   --> G_4            
     e( 23 - 24) =      5.32517  eV     2   --> G_3            
     e( 23 - 24) =      5.32517  eV     2   --> G_4            
     e( 25 - 26) =      5.51944  eV     2   --> G_3            
     e( 25 - 26) =      5.51944  eV     2   --> G_4            
     e( 27 - 28) =      7.59305  eV     2   --> G_3            
     e( 27 - 28) =      7.59305  eV     2   --> G_4            
     e( 29 - 30) =      7.91823  eV     2   --> G_3            
     e( 29 - 30) =      7.91823  eV     2   --> G_4            
     e( 31 - 32) =      7.99944  eV     2   --> G_3            
     e( 31 - 32) =      7.99944  eV     2   --> G_4            
     e( 33 - 34) =      8.12949  eV     2   --> G_3            
     e( 33 - 34) =      8.12949  eV     2   --> G_4            
     e( 35 - 36) =     10.56312  eV     2   --> G_3            
     e( 35 - 36) =     10.56312  eV     2   --> G_4            
     e( 37 - 38) =     10.94265  eV     2   --> G_3            
     e( 37 - 38) =     10.94265  eV     2   --> G_4            
     e( 39 - 40) =     13.21072  eV     2   --> G_3            
     e( 39 - 40) =     13.21072  eV     2   --> G_4            
     e( 41 - 42) =     13.82143  eV     2   --> G_3            
     e( 41 - 42) =     13.82143  eV     2   --> G_4            
     e( 43 - 44) =     14.00296  eV     2   --> G_3            
     e( 43 - 44) =     14.00296  eV     2   --> G_4            
     e( 45 - 46) =     14.73799  eV     2   --> G_3            
     e( 45 - 46) =     14.73799  eV     2   --> G_4            
     e( 47 - 48) =     15.25533  eV     2   --> G_3            
     e( 47 - 48) =     15.25533  eV     2   --> G_4            
     e( 49 - 50) =     17.18456  eV     2   --> G_3            
     e( 49 - 50) =     17.18456  eV     2   --> G_4            
     e( 51 - 52) =     17.90918  eV     2   --> G_3            
     e( 51 - 52) =     17.90918  eV     2   --> G_4            
     e( 53 - 54) =     18.32106  eV     2   --> G_3            
     e( 53 - 54) =     18.32106  eV     2   --> G_4            
     e( 55 - 56) =     18.81174  eV     2   --> G_3            
     e( 55 - 56) =     18.81174  eV     2   --> G_4            
     e( 57 - 58) =     19.33008  eV     2   --> G_3            
     e( 57 - 58) =     19.33008  eV     2   --> G_4            
     e( 59 - 60) =     19.43543  eV     2   --> G_3            
     e( 59 - 60) =     19.43543  eV     2   --> G_4            
     e( 61 - 62) =     19.57333  eV     2   --> G_3            
     e( 61 - 62) =     19.57333  eV     2   --> G_4            
     e( 63 - 64) =     20.29268  eV     2   --> G_3            
     e( 63 - 64) =     20.29268  eV     2   --> G_4            
     e( 65 - 66) =     20.30768  eV     2   --> G_3            
     e( 65 - 66) =     20.30768  eV     2   --> G_4            
     e( 67 - 68) =     20.53630  eV     2   --> G_3            
     e( 67 - 68) =     20.53630  eV     2   --> G_4            
     e( 69 - 70) =     20.98625  eV     2   --> G_3            
     e( 69 - 70) =     20.98625  eV     2   --> G_4            
     e( 71 - 72) =     21.11251  eV     2   --> G_3            
     e( 71 - 72) =     21.11251  eV     2   --> G_4            
     e( 73 - 74) =     21.13687  eV     2   --> G_3            
     e( 73 - 74) =     21.13687  eV     2   --> G_4            
     e( 75 - 76) =     21.13734  eV     2   --> G_3            
     e( 75 - 76) =     21.13734  eV     2   --> G_4            
     e( 77 - 78) =     21.33427  eV     2   --> G_3            
     e( 77 - 78) =     21.33427  eV     2   --> G_4            
     e( 79 - 80) =     21.42377  eV     2   --> G_3            
     e( 79 - 80) =     21.42377  eV     2   --> G_4            
     e( 81 - 82) =     21.44301  eV     2   --> G_3            
     e( 81 - 82) =     21.44301  eV     2   --> G_4            
     e( 83 - 84) =     21.85526  eV     2   --> G_3            
     e( 83 - 84) =     21.85526  eV     2   --> G_4            
     e( 85 - 86) =     21.97223  eV     2   --> G_3            
     e( 85 - 86) =     21.97223  eV     2   --> G_4            
     e( 87 - 88) =     22.19187  eV     2   --> G_3            
     e( 87 - 88) =     22.19187  eV     2   --> G_4            
     e( 89 - 90) =     22.25602  eV     2   --> G_3            
     e( 89 - 90) =     22.25602  eV     2   --> G_4            
     e( 91 - 92) =     22.29757  eV     2   --> G_3            
     e( 91 - 92) =     22.29757  eV     2   --> G_4            
     e( 93 - 94) =     22.65105  eV     2   --> G_3            
     e( 93 - 94) =     22.65105  eV     2   --> G_4            
     e( 95 - 96) =     22.73684  eV     2   --> G_3            
     e( 95 - 96) =     22.73684  eV     2   --> G_4            
     e( 97 - 98) =     22.79497  eV     2   --> G_3            
     e( 97 - 98) =     22.79497  eV     2   --> G_4            
     e( 99 -100) =     22.87358  eV     2   --> G_3            
     e( 99 -100) =     22.87358  eV     2   --> G_4            

 **************************************************************************

 **************************************************************************

                    xk=(   0.05014,   0.02895,   0.00000  )

     Band symmetry, C_s (m)     double point group:

     e(  1 -  2) =    -17.56306  eV     2   --> G_3            
     e(  1 -  2) =    -17.56306  eV     2   --> G_4            
     e(  3 -  4) =     -6.15004  eV     2   --> G_3            
     e(  3 -  4) =     -6.15004  eV     2   --> G_4            
     e(  5 -  6) =     -4.77610  eV     2   --> G_3            
     e(  5 -  6) =     -4.77610  eV     2   --> G_4            
     e(  7 -  8) =     -4.65019  eV     2   --> G_3            
     e(  7 -  8) =     -4.65019  eV     2   --> G_4            
     e(  9 - 10) =     -0.90899  eV     2   --> G_3            
     e(  9 - 10) =     -0.90899  eV     2   --> G_4            
     e( 11 - 12) =      1.00141  eV     2   --> G_3            
     e( 11 - 12) =      1.00141  eV     2   --> G_4            
     e( 13 - 14) =      1.45027  eV     2   --> G_3            
     e( 13 - 14) =      1.45027  eV     2   --> G_4            
     e( 15 - 16) =      2.07488  eV     2   --> G_3            
     e( 15 - 16) =      2.07488  eV     2   --> G_4            
     e( 17 - 18) =      2.15530  eV     2   --> G_3            
     e( 17 - 18) =      2.15530  eV     2   --> G_4            
     e( 19 - 20) =      3.46754  eV     2   --> G_3            
     e( 19 - 20) =      3.46754  eV     2   --> G_4            
     e( 21 - 22) =      3.62442  eV     2   --> G_3            
     e( 21 - 22) =      3.62442  eV     2   --> G_4            
     e( 23 - 24) =      5.34666  eV     2   --> G_3            
     e( 23 - 24) =      5.34666  eV     2   --> G_4            
     e( 25 - 26) =      5.52657  eV     2   --> G_3            
     e( 25 - 26) =      5.52657  eV     2   --> G_4            
     e( 27 - 28) =      7.56290  eV     2   --> G_3            
     e( 27 - 28) =      7.56290  eV     2   --> G_4            
     e( 29 - 30) =      7.92343  eV     2   --> G_3            
     e( 29 - 30) =      7.92343  eV     2   --> G_4            
     e( 31 - 32) =      7.97816  eV     2   --> G_3            
     e( 31 - 32) =      7.97816  eV     2   --> G_4            
     e( 33 - 34) =      8.16013  eV     2   --> G_3            
     e( 33 - 34) =      8.16013  eV     2   --> G_4            
     e( 35 - 36) =     10.60060  eV     2   --> G_3            
     e( 35 - 36) =     10.60060  eV     2   --> G_4            
     e( 37 - 38) =     10.94218  eV     2   --> G_3            
     e( 37 - 38) =     10.94218  eV     2   --> G_4            
     e( 39 - 40) =     13.28003  eV     2   --> G_3            
     e( 39 - 40) =     13.28003  eV     2   --> G_4            
     e( 41 - 42) =     13.68545  eV     2   --> G_3            
     e( 41 - 42) =     13.68545  eV     2   --> G_4            
     e( 43 - 44) =     13.93094  eV     2   --> G_3            
     e( 43 - 44) =     13.93094  eV     2   --> G_4            
     e( 45 - 46) =     14.78153  eV     2   --> G_3            
     e( 45 - 46) =     14.78153  eV     2   --> G_4            
     e( 47 - 48) =     15.28267  eV     2   --> G_3            
     e( 47 - 48) =     15.28267  eV     2   --> G_4            
     e( 49 - 50) =     17.08274  eV     2   --> G_3            
     e( 49 - 50) =     17.08274  eV     2   --> G_4            
     e( 51 - 52) =     18.00891  eV     2   --> G_3            
     e( 51 - 52) =     18.00891  eV     2   --> G_4            
     e( 53 - 54) =     18.42237  eV     2   --> G_3            
     e( 53 - 54) =     18.42237  eV     2   --> G_4            
     e( 55 - 56) =     18.54703  eV     2   --> G_3            
     e( 55 - 56) =     18.54703  eV     2   --> G_4            
     e( 57 - 58) =     19.30095  eV     2   --> G_3            
     e( 57 - 58) =     19.30095  eV     2   --> G_4            
     e( 59 - 60) =     19.31544  eV     2   --> G_3            
     e( 59 - 60) =     19.31544  eV     2   --> G_4            
     e( 61 - 62) =     19.66301  eV     2   --> G_3            
     e( 61 - 62) =     19.66301  eV     2   --> G_4            
     e( 63 - 64) =     19.97026  eV     2   --> G_3            
     e( 63 - 64) =     19.97026  eV     2   --> G_4            
     e( 65 - 66) =     20.00979  eV     2   --> G_3            
     e( 65 - 66) =     20.00979  eV     2   --> G_4            
     e( 67 - 68) =     20.29200  eV     2   --> G_3            
     e( 67 - 68) =     20.29200  eV     2   --> G_4            
     e( 69 - 70) =     20.79329  eV     2   --> G_3            
     e( 69 - 70) =     20.79329  eV     2   --> G_4            
     e( 71 - 72) =     20.92247  eV     2   --> G_3            
     e( 71 - 72) =     20.92247  eV     2   --> G_4            
     e( 73 - 74) =     20.95912  eV     2   --> G_3            
     e( 73 - 74) =     20.95912  eV     2   --> G_4            
     e( 75 - 76) =     20.97938  eV     2   --> G_3            
     e( 75 - 76) =     20.97938  eV     2   --> G_4            
     e( 77 - 78) =     21.11639  eV     2   --> G_3            
     e( 77 - 78) =     21.11639  eV     2   --> G_4            
     e( 79 - 80) =     21.15524  eV     2   --> G_3            
     e( 79 - 80) =     21.15524  eV     2   --> G_4            
     e( 81 - 82) =     21.44180  eV     2   --> G_3            
     e( 81 - 82) =     21.44180  eV     2   --> G_4            
     e( 83 - 84) =     21.83759  eV     2   --> G_3            
     e( 83 - 84) =     21.83759  eV     2   --> G_4            
     e( 85 - 86) =     21.83947  eV     2   --> G_3            
     e( 85 - 86) =     21.83947  eV     2   --> G_4            
     e( 87 - 88) =     22.02335  eV     2   --> G_3            
     e( 87 - 88) =     22.02335  eV     2   --> G_4            
     e( 89 - 90) =     22.15960  eV     2   --> G_3            
     e( 89 - 90) =     22.15960  eV     2   --> G_4            
     e( 91 - 92) =     22.22013  eV     2   --> G_3            
     e( 91 - 92) =     22.22013  eV     2   --> G_4            
     e( 93 - 94) =     22.64661  eV     2   --> G_3            
     e( 93 - 94) =     22.64661  eV     2   --> G_4            
     e( 95 - 96) =     22.88450  eV     2   --> G_3            
     e( 95 - 96) =     22.88450  eV     2   --> G_4            
     e( 97 - 98) =     22.93676  eV     2   --> G_3            
     e( 97 - 98) =     22.93676  eV     2   --> G_4            
     e( 99 -100) =     22.99475  eV     2   --> G_3            
     e( 99 -100) =     22.99475  eV     2   --> G_4            

 **************************************************************************

 **************************************************************************

                    xk=(   0.06016,   0.03473,   0.00000  )

     Band symmetry, C_s (m)     double point group:

     e(  1 -  2) =    -17.55126  eV     2   --> G_3            
     e(  1 -  2) =    -17.55126  eV     2   --> G_4            
     e(  3 -  4) =     -6.13495  eV     2   --> G_3            
     e(  3 -  4) =     -6.13495  eV     2   --> G_4            
     e(  5 -  6) =     -4.83708  eV     2   --> G_3            
     e(  5 -  6) =     -4.83708  eV     2   --> G_4            
     e(  7 -  8) =     -4.65928  eV     2   --> G_3            
     e(  7 -  8) =     -4.65928  eV     2   --> G_4            
     e(  9 - 10) =     -0.86747  eV     2   --> G_3            
     e(  9 - 10) =     -0.86747  eV     2   --> G_4            
     e( 11 - 12) =      1.01923  eV     2   --> G_3            
     e( 11 - 12) =      1.01923  eV     2   --> G_4            
     e( 13 - 14) =      1.47418  eV     2   --> G_3            
     e( 13 - 14) =      1.47418  eV     2   --> G_4            
     e( 15 - 16) =      2.10186  eV     2   --> G_3            
     e( 15 - 16) =      2.10186  eV     2   --> G_4            
     e( 17 - 18) =      2.17463  eV     2   --> G_3            
     e( 17 - 18) =      2.17463  eV     2   --> G_4            
     e( 19 - 20) =      3.49545  eV     2   --> G_3            
     e( 19 - 20) =      3.49545  eV     2   --> G_4            
     e( 21 - 22) =      3.63864  eV     2   --> G_3            
     e( 21 - 22) =      3.63864  eV     2   --> G_4            
     e( 23 - 24) =      5.37268  eV     2   --> G_3            
     e( 23 - 24) =      5.37268  eV     2   --> G_4            
     e( 25 - 26) =      5.53524  eV     2   --> G_3            
     e( 25 - 26) =      5.53524  eV     2   --> G_4            
     e( 27 - 28) =      7.51577  eV     2   --> G_3            
     e( 27 - 28) =      7.51577  eV     2   --> G_4            
     e( 29 - 30) =      7.92983  eV     2   --> G_3            
     e( 29 - 30) =      7.92983  eV     2   --> G_4            
     e( 31 - 32) =      7.96696  eV     2   --> G_3            
     e( 31 - 32) =      7.96696  eV     2   --> G_4            
     e( 33 - 34) =      8.19773  eV     2   --> G_3            
     e( 33 - 34) =      8.19773  eV     2   --> G_4            
     e( 35 - 36) =     10.64382  eV     2   --> G_3            
     e( 35 - 36) =     10.64382  eV     2   --> G_4            
     e( 37 - 38) =     10.94115  eV     2   --> G_3            
     e( 37 - 38) =     10.94115  eV     2   --> G_4            
     e( 39 - 40) =     13.36192  eV     2   --> G_3            
     e( 39 - 40) =     13.36192  eV     2   --> G_4            
     e( 41 - 42) =     13.53835  eV     2   --> G_3            
     e( 41 - 42) =     13.53835  eV     2   --> G_4            
     e( 43 - 44) =     13.84790  eV     2   --> G_3            
     e( 43 - 44) =     13.84790  eV     2   --> G_4            
     e( 45 - 46) =     14.81960  eV     2   --> G_3            
     e( 45 - 46) =     14.81960  eV     2   --> G_4            
     e( 47 - 48) =     15.31549  eV     2   --> G_3            
     e( 47 - 48) =     15.31549  eV     2   --> G_4            
     e( 49 - 50) =     16.99849  eV     2   --> G_3            
     e( 49 - 50) =     16.99849  eV     2   --> G_4            
     e( 51 - 52) =     18.12489  eV     2   --> G_3            
     e( 51 - 52) =     18.12489  eV     2   --> G_4            
     e( 53 - 54) =     18.25435  eV     2   --> G_3            
     e( 53 - 54) =     18.25435  eV     2   --> G_4            
     e( 55 - 56) =     18.49582  eV     2   --> G_3            
     e( 55 - 56) =     18.49582  eV     2   --> G_4            
     e( 57 - 58) =     19.18703  eV     2   --> G_3            
     e( 57 - 58) =     19.18703  eV     2   --> G_4            
     e( 59 - 60) =     19.27575  eV     2   --> G_3            
     e( 59 - 60) =     19.27575  eV     2   --> G_4            
     e( 61 - 62) =     19.53017  eV     2   --> G_3            
     e( 61 - 62) =     19.53017  eV     2   --> G_4            
     e( 63 - 64) =     19.62025  eV     2   --> G_3            
     e( 63 - 64) =     19.62025  eV     2   --> G_4            
     e( 65 - 66) =     19.93718  eV     2   --> G_3            
     e( 65 - 66) =     19.93718  eV     2   --> G_4            
     e( 67 - 68) =     20.08658  eV     2   --> G_3            
     e( 67 - 68) =     20.08658  eV     2   --> G_4            
     e( 69 - 70) =     20.58870  eV     2   --> G_3            
     e( 69 - 70) =     20.58870  eV     2   --> G_4            
     e( 71 - 72) =     20.65534  eV     2   --> G_3            
     e( 71 - 72) =     20.65534  eV     2   --> G_4            
     e( 73 - 74) =     20.78578  eV     2   --> G_3            
     e( 73 - 74) =     20.78578  eV     2   --> G_4            
     e( 75 - 76) =     20.81845  eV     2   --> G_3            
     e( 75 - 76) =     20.81845  eV     2   --> G_4            
     e( 77 - 78) =     20.85153  eV     2   --> G_3            
     e( 77 - 78) =     20.85153  eV     2   --> G_4            
     e( 79 - 80) =     20.95612  eV     2   --> G_3            
     e( 79 - 80) =     20.95612  eV     2   --> G_4            
     e( 81 - 82) =     21.42703  eV     2   --> G_3            
     e( 81 - 82) =     21.42703  eV     2   --> G_4            
     e( 83 - 84) =     21.69320  eV     2   --> G_3            
     e( 83 - 84) =     21.69320  eV     2   --> G_4            
     e( 85 - 86) =     21.78877  eV     2   --> G_3            
     e( 85 - 86) =     21.78877  eV     2   --> G_4            
     e( 87 - 88) =     21.85222  eV     2   --> G_3            
     e( 87 - 88) =     21.85222  eV     2   --> G_4            
     e( 89 - 90) =     22.08605  eV     2   --> G_3            
     e( 89 - 90) =     22.08605  eV     2   --> G_4            
     e( 91 - 92) =     22.18734  eV     2   --> G_3            
     e( 91 - 92) =     22.18734  eV     2   --> G_4            
     e( 93 - 94) =     22.44961  eV     2   --> G_3            
     e( 93 - 94) =     22.44961  eV     2   --> G_4            
     e( 95 - 96) =     22.79099  eV     2   --> G_3            
     e( 95 - 96) =     22.79099  eV     2   --> G_4            
     e( 97 - 98) =     22.90555  eV     2   --> G_3            
     e( 97 - 98) =     22.90555  eV     2   --> G_4            
     e( 99 -100) =     23.18861  eV     2   --> G_3            
     e( 99 -100) =     23.18861  eV     2   --> G_4            

 **************************************************************************

 **************************************************************************

                    xk=(   0.07019,   0.04052,   0.00000  )

     Band symmetry, C_s (m)     double point group:

     e(  1 -  2) =    -17.53736  eV     2   --> G_3            
     e(  1 -  2) =    -17.53736  eV     2   --> G_4            
     e(  3 -  4) =     -6.11714  eV     2   --> G_3            
     e(  3 -  4) =     -6.11714  eV     2   --> G_4            
     e(  5 -  6) =     -4.90712  eV     2   --> G_3            
     e(  5 -  6) =     -4.90712  eV     2   --> G_4            
     e(  7 -  8) =     -4.66983  eV     2   --> G_3            
     e(  7 -  8) =     -4.66983  eV     2   --> G_4            
     e(  9 - 10) =     -0.81998  eV     2   --> G_3            
     e(  9 - 10) =     -0.81998  eV     2   --> G_4            
     e( 11 - 12) =      1.04018  eV     2   --> G_3            
     e( 11 - 12) =      1.04018  eV     2   --> G_4            
     e( 13 - 14) =      1.50235  eV     2   --> G_3            
     e( 13 - 14) =      1.50235  eV     2   --> G_4            
     e( 15 - 16) =      2.13353  eV     2   --> G_3            
     e( 15 - 16) =      2.13353  eV     2   --> G_4            
     e( 17 - 18) =      2.19743  eV     2   --> G_3            
     e( 17 - 18) =      2.19743  eV     2   --> G_4            
     e( 19 - 20) =      3.52821  eV     2   --> G_3            
     e( 19 - 20) =      3.52821  eV     2   --> G_4            
     e( 21 - 22) =      3.65531  eV     2   --> G_3            
     e( 21 - 22) =      3.65531  eV     2   --> G_4            
     e( 23 - 24) =      5.40310  eV     2   --> G_3            
     e( 23 - 24) =      5.40310  eV     2   --> G_4            
     e( 25 - 26) =      5.54543  eV     2   --> G_3            
     e( 25 - 26) =      5.54543  eV     2   --> G_4            
     e( 27 - 28) =      7.45104  eV     2   --> G_3            
     e( 27 - 28) =      7.45104  eV     2   --> G_4            
     e( 29 - 30) =      7.93755  eV     2   --> G_3            
     e( 29 - 30) =      7.93755  eV     2   --> G_4            
     e( 31 - 32) =      7.96860  eV     2   --> G_3            
     e( 31 - 32) =      7.96860  eV     2   --> G_4            
     e( 33 - 34) =      8.24210  eV     2   --> G_3            
     e( 33 - 34) =      8.24210  eV     2   --> G_4            
     e( 35 - 36) =     10.69190  eV     2   --> G_3            
     e( 35 - 36) =     10.69190  eV     2   --> G_4            
     e( 37 - 38) =     10.93919  eV     2   --> G_3            
     e( 37 - 38) =     10.93919  eV     2   --> G_4            
     e( 39 - 40) =     13.38303  eV     2   --> G_3            
     e( 39 - 40) =     13.38303  eV     2   --> G_4            
     e( 41 - 42) =     13.45487  eV     2   --> G_3            
     e( 41 - 42) =     13.45487  eV     2   --> G_4            
     e( 43 - 44) =     13.75589  eV     2   --> G_3            
     e( 43 - 44) =     13.75589  eV     2   --> G_4            
     e( 45 - 46) =     14.85191  eV     2   --> G_3            
     e( 45 - 46) =     14.85191  eV     2   --> G_4            
     e( 47 - 48) =     15.35313  eV     2   --> G_3            
     e( 47 - 48) =     15.35313  eV     2   --> G_4            
     e( 49 - 50) =     16.93112  eV     2   --> G_3            
     e( 49 - 50) =     16.93112  eV     2   --> G_4            
     e( 51 - 52) =     17.94933  eV     2   --> G_3            
     e( 51 - 52) =     17.94933  eV     2   --> G_4            
     e( 53 - 54) =     18.25431  eV     2   --> G_3            
     e( 53 - 54) =     18.25431  eV     2   --> G_4            
     e( 55 - 56) =     18.52639  eV     2   --> G_3            
     e( 55 - 56) =     18.52639  eV     2   --> G_4            
     e( 57 - 58) =     19.05376  eV     2   --> G_3            
     e( 57 - 58) =     19.05376  eV     2   --> G_4            
     e( 59 - 60) =     19.17440  eV     2   --> G_3            
     e( 59 - 60) =     19.17440  eV     2   --> G_4            
     e( 61 - 62) =     19.24984  eV     2   --> G_3            
     e( 61 - 62) =     19.24984  eV     2   --> G_4            
     e( 63 - 64) =     19.33004  eV     2   --> G_3            
     e( 63 - 64) =     19.33004  eV     2   --> G_4            
     e( 65 - 66) =     19.89776  eV     2   --> G_3            
     e( 65 - 66) =     19.89776  eV     2   --> G_4            
     e( 67 - 68) =     19.94243  eV     2   --> G_3            
     e( 67 - 68) =     19.94243  eV     2   --> G_4            
     e( 69 - 70) =     20.37291  eV     2   --> G_3            
     e( 69 - 70) =     20.37291  eV     2   --> G_4            
     e( 71 - 72) =     20.43359  eV     2   --> G_3            
     e( 71 - 72) =     20.43359  eV     2   --> G_4            
     e( 73 - 74) =     20.61774  eV     2   --> G_3            
     e( 73 - 74) =     20.61774  eV     2   --> G_4            
     e( 75 - 76) =     20.65132  eV     2   --> G_3            
     e( 75 - 76) =     20.65132  eV     2   --> G_4            
     e( 77 - 78) =     20.65531  eV     2   --> G_3            
     e( 77 - 78) =     20.65531  eV     2   --> G_4            
     e( 79 - 80) =     20.76656  eV     2   --> G_3            
     e( 79 - 80) =     20.76656  eV     2   --> G_4            
     e( 81 - 82) =     21.36784  eV     2   --> G_3            
     e( 81 - 82) =     21.36784  eV     2   --> G_4            
     e( 83 - 84) =     21.54776  eV     2   --> G_3            
     e( 83 - 84) =     21.54776  eV     2   --> G_4            
     e( 85 - 86) =     21.62415  eV     2   --> G_3            
     e( 85 - 86) =     21.62415  eV     2   --> G_4            
     e( 87 - 88) =     21.68326  eV     2   --> G_3            
     e( 87 - 88) =     21.68326  eV     2   --> G_4            
     e( 89 - 90) =     22.02762  eV     2   --> G_3            
     e( 89 - 90) =     22.02762  eV     2   --> G_4            
     e( 91 - 92) =     22.16045  eV     2   --> G_3            
     e( 91 - 92) =     22.16045  eV     2   --> G_4            
     e( 93 - 94) =     22.20387  eV     2   --> G_3            
     e( 93 - 94) =     22.20387  eV     2   --> G_4            
     e( 95 - 96) =     22.69454  eV     2   --> G_3            
     e( 95 - 96) =     22.69454  eV     2   --> G_4            
     e( 97 - 98) =     22.90432  eV     2   --> G_3            
     e( 97 - 98) =     22.90432  eV     2   --> G_4            
     e( 99 -100) =     23.33137  eV     2   --> G_3            
     e( 99 -100) =     23.33137  eV     2   --> G_4            

 **************************************************************************

 **************************************************************************

                    xk=(   0.08022,   0.04631,   0.00000  )

     Band symmetry, C_s (m)     double point group:

     e(  1 -  2) =    -17.52140  eV     2   --> G_3            
     e(  1 -  2) =    -17.52140  eV     2   --> G_4            
     e(  3 -  4) =     -6.09665  eV     2   --> G_3            
     e(  3 -  4) =     -6.09665  eV     2   --> G_4            
     e(  5 -  6) =     -4.98543  eV     2   --> G_3            
     e(  5 -  6) =     -4.98543  eV     2   --> G_4            
     e(  7 -  8) =     -4.68176  eV     2   --> G_3            
     e(  7 -  8) =     -4.68176  eV     2   --> G_4            
     e(  9 - 10) =     -0.76710  eV     2   --> G_3            
     e(  9 - 10) =     -0.76710  eV     2   --> G_4            
     e( 11 - 12) =      1.06420  eV     2   --> G_3            
     e( 11 - 12) =      1.06420  eV     2   --> G_4            
     e( 13 - 14) =      1.53474  eV     2   --> G_3            
     e( 13 - 14) =      1.53474  eV     2   --> G_4            
     e( 15 - 16) =      2.16979  eV     2   --> G_3            
     e( 15 - 16) =      2.16979  eV     2   --> G_4            
     e( 17 - 18) =      2.22365  eV     2   --> G_3            
     e( 17 - 18) =      2.22365  eV     2   --> G_4            
     e( 19 - 20) =      3.56569  eV     2   --> G_3            
     e( 19 - 20) =      3.56569  eV     2   --> G_4            
     e( 21 - 22) =      3.67435  eV     2   --> G_3            
     e( 21 - 22) =      3.67435  eV     2   --> G_4            
     e( 23 - 24) =      5.43768  eV     2   --> G_3            
     e( 23 - 24) =      5.43768  eV     2   --> G_4            
     e( 25 - 26) =      5.55711  eV     2   --> G_3            
     e( 25 - 26) =      5.55711  eV     2   --> G_4            
     e( 27 - 28) =      7.37123  eV     2   --> G_3            
     e( 27 - 28) =      7.37123  eV     2   --> G_4            
     e( 29 - 30) =      7.94656  eV     2   --> G_3            
     e( 29 - 30) =      7.94656  eV     2   --> G_4            
     e( 31 - 32) =      7.98268  eV     2   --> G_3            
     e( 31 - 32) =      7.98268  eV     2   --> G_4            
     e( 33 - 34) =      8.29308  eV     2   --> G_3            
     e( 33 - 34) =      8.29308  eV     2   --> G_4            
     e( 35 - 36) =     10.74412  eV     2   --> G_3            
     e( 35 - 36) =     10.74412  eV     2   --> G_4            
     e( 37 - 38) =     10.93582  eV     2   --> G_3            
     e( 37 - 38) =     10.93582  eV     2   --> G_4            
     e( 39 - 40) =     13.22232  eV     2   --> G_3            
     e( 39 - 40) =     13.22232  eV     2   --> G_4            
     e( 41 - 42) =     13.55723  eV     2   --> G_3            
     e( 41 - 42) =     13.55723  eV     2   --> G_4            
     e( 43 - 44) =     13.65678  eV     2   --> G_3            
     e( 43 - 44) =     13.65678  eV     2   --> G_4            
     e( 45 - 46) =     14.87885  eV     2   --> G_3            
     e( 45 - 46) =     14.87885  eV     2   --> G_4            
     e( 47 - 48) =     15.39442  eV     2   --> G_3            
     e( 47 - 48) =     15.39442  eV     2   --> G_4            
     e( 49 - 50) =     16.87891  eV     2   --> G_3            
     e( 49 - 50) =     16.87891  eV     2   --> G_4            
     e( 51 - 52) =     17.64000  eV     2   --> G_3            
     e( 51 - 52) =     17.64000  eV     2   --> G_4            
     e( 53 - 54) =     18.39408  eV     2   --> G_3            
     e( 53 - 54) =     18.39408  eV     2   --> G_4            
     e( 55 - 56) =     18.46576  eV     2   --> G_3            
     e( 55 - 56) =     18.46576  eV     2   --> G_4            
     e( 57 - 58) =     18.84986  eV     2   --> G_3            
     e( 57 - 58) =     18.84986  eV     2   --> G_4            
     e( 59 - 60) =     18.91805  eV     2   --> G_3            
     e( 59 - 60) =     18.91805  eV     2   --> G_4            
     e( 61 - 62) =     19.02320  eV     2   --> G_3            
     e( 61 - 62) =     19.02320  eV     2   --> G_4            
     e( 63 - 64) =     19.23463  eV     2   --> G_3            
     e( 63 - 64) =     19.23463  eV     2   --> G_4            
     e( 65 - 66) =     19.71669  eV     2   --> G_3            
     e( 65 - 66) =     19.71669  eV     2   --> G_4            
     e( 67 - 68) =     19.76452  eV     2   --> G_3            
     e( 67 - 68) =     19.76452  eV     2   --> G_4            
     e( 69 - 70) =     20.11158  eV     2   --> G_3            
     e( 69 - 70) =     20.11158  eV     2   --> G_4            
     e( 71 - 72) =     20.36556  eV     2   --> G_3            
     e( 71 - 72) =     20.36556  eV     2   --> G_4            
     e( 73 - 74) =     20.45604  eV     2   --> G_3            
     e( 73 - 74) =     20.45604  eV     2   --> G_4            
     e( 75 - 76) =     20.48409  eV     2   --> G_3            
     e( 75 - 76) =     20.48409  eV     2   --> G_4            
     e( 77 - 78) =     20.58459  eV     2   --> G_3            
     e( 77 - 78) =     20.58459  eV     2   --> G_4            
     e( 79 - 80) =     20.58662  eV     2   --> G_3            
     e( 79 - 80) =     20.58662  eV     2   --> G_4            
     e( 81 - 82) =     21.27053  eV     2   --> G_3            
     e( 81 - 82) =     21.27053  eV     2   --> G_4            
     e( 83 - 84) =     21.40360  eV     2   --> G_3            
     e( 83 - 84) =     21.40360  eV     2   --> G_4            
     e( 85 - 86) =     21.41271  eV     2   --> G_3            
     e( 85 - 86) =     21.41271  eV     2   --> G_4            
     e( 87 - 88) =     21.51817  eV     2   --> G_3            
     e( 87 - 88) =     21.51817  eV     2   --> G_4            
     e( 89 - 90) =     21.86205  eV     2   --> G_3            
     e( 89 - 90) =     21.86205  eV     2   --> G_4            
     e( 91 - 92) =     21.89068  eV     2   --> G_3            
     e( 91 - 92) =     21.89068  eV     2   --> G_4            
     e( 93 - 94) =     22.24841  eV     2   --> G_3            
     e( 93 - 94) =     22.24841  eV     2   --> G_4            
     e( 95 - 96) =     22.71255  eV     2   --> G_3            
     e( 95 - 96) =     22.71255  eV     2   --> G_4            
     e( 97 - 98) =     22.87503  eV     2   --> G_3            
     e( 97 - 98) =     22.87503  eV     2   --> G_4            
     e( 99 -100) =     23.32005  eV     2   -->   ?

 **************************************************************************

 **************************************************************************

                    xk=(   0.09024,   0.05210,   0.00000  )

     Band symmetry, C_s (m)     double point group:

     e(  1 -  2) =    -17.50341  eV     2   --> G_3            
     e(  1 -  2) =    -17.50341  eV     2   --> G_4            
     e(  3 -  4) =     -6.07350  eV     2   --> G_3            
     e(  3 -  4) =     -6.07350  eV     2   --> G_4            
     e(  5 -  6) =     -5.07116  eV     2   --> G_3            
     e(  5 -  6) =     -5.07116  eV     2   --> G_4            
     e(  7 -  8) =     -4.69507  eV     2   --> G_3            
     e(  7 -  8) =     -4.69507  eV     2   --> G_4            
     e(  9 - 10) =     -0.70938  eV     2   --> G_3            
     e(  9 - 10) =     -0.70938  eV     2   --> G_4            
     e( 11 - 12) =      1.09119  eV     2   --> G_3            
     e( 11 - 12) =      1.09119  eV     2   --> G_4            
     e( 13 - 14) =      1.57132  eV     2   --> G_3            
     e( 13 - 14) =      1.57132  eV     2   --> G_4            
     e( 15 - 16) =      2.21052  eV     2   --> G_3            
     e( 15 - 16) =      2.21052  eV     2   --> G_4            
     e( 17 - 18) =      2.25326  eV     2   --> G_3            
     e( 17 - 18) =      2.25326  eV     2   --> G_4            
     e( 19 - 20) =      3.60776  eV     2   --> G_3            
     e( 19 - 20) =      3.60776  eV     2   --> G_4            
     e( 21 - 22) =      3.69567  eV     2   --> G_3            
     e( 21 - 22) =      3.69567  eV     2   --> G_4            
     e( 23 - 24) =      5.47614  eV     2   --> G_3            
     e( 23 - 24) =      5.47614  eV     2   --> G_4            
     e( 25 - 26) =      5.57024  eV     2   --> G_3            
     e( 25 - 26) =      5.57024  eV     2   --> G_4            
     e( 27 - 28) =      7.28017  eV     2   --> G_3            
     e( 27 - 28) =      7.28017  eV     2   --> G_4            
     e( 29 - 30) =      7.95675  eV     2   --> G_3            
     e( 29 - 30) =      7.95675  eV     2   --> G_4            
     e( 31 - 32) =      8.00744  eV     2   --> G_3            
     e( 31 - 32) =      8.00744  eV     2   --> G_4            
     e( 33 - 34) =      8.35055  eV     2   --> G_3            
     e( 33 - 34) =      8.35055  eV     2   --> G_4            
     e( 35 - 36) =     10.79994  eV     2   --> G_3            
     e( 35 - 36) =     10.79994  eV     2   --> G_4            
     e( 37 - 38) =     10.93035  eV     2   --> G_3            
     e( 37 - 38) =     10.93035  eV     2   --> G_4            
     e( 39 - 40) =     13.05903  eV     2   --> G_3            
     e( 39 - 40) =     13.05903  eV     2   --> G_4            
     e( 41 - 42) =     13.55223  eV     2   --> G_3            
     e( 41 - 42) =     13.55223  eV     2   --> G_4            
     e( 43 - 44) =     13.66731  eV     2   --> G_3            
     e( 43 - 44) =     13.66731  eV     2   --> G_4            
     e( 45 - 46) =     14.90121  eV     2   --> G_3            
     e( 45 - 46) =     14.90121  eV     2   --> G_4            
     e( 47 - 48) =     15.43715  eV     2   --> G_3            
     e( 47 - 48) =     15.43715  eV     2   --> G_4            
     e( 49 - 50) =     16.83909  eV     2   --> G_3            
     e( 49 - 50) =     16.83909  eV     2   --> G_4            
     e( 51 - 52) =     17.33225  eV     2   --> G_3            
     e( 51 - 52) =     17.33225  eV     2   --> G_4            
     e( 53 - 54) =     18.26295  eV     2   --> G_3            
     e( 53 - 54) =     18.26295  eV     2   --> G_4            
     e( 55 - 56) =     18.48878  eV     2   --> G_3            
     e( 55 - 56) =     18.48878  eV     2   --> G_4            
     e( 57 - 58) =     18.54059  eV     2   --> G_3            
     e( 57 - 58) =     18.54059  eV     2   --> G_4            
     e( 59 - 60) =     18.78155  eV     2   --> G_3            
     e( 59 - 60) =     18.78155  eV     2   --> G_4            
     e( 61 - 62) =     18.90815  eV     2   --> G_3            
     e( 61 - 62) =     18.90815  eV     2   --> G_4            
     e( 63 - 64) =     19.11876  eV     2   --> G_3            
     e( 63 - 64) =     19.11876  eV     2   --> G_4            
     e( 65 - 66) =     19.50803  eV     2   --> G_3            
     e( 65 - 66) =     19.50803  eV     2   --> G_4            
     e( 67 - 68) =     19.53985  eV     2   --> G_3            
     e( 67 - 68) =     19.53985  eV     2   --> G_4            
     e( 69 - 70) =     19.91067  eV     2   --> G_3            
     e( 69 - 70) =     19.91067  eV     2   --> G_4            
     e( 71 - 72) =     20.23248  eV     2   --> G_3            
     e( 71 - 72) =     20.23248  eV     2   --> G_4            
     e( 73 - 74) =     20.30217  eV     2   --> G_3            
     e( 73 - 74) =     20.30217  eV     2   --> G_4            
     e( 75 - 76) =     20.31884  eV     2   --> G_3            
     e( 75 - 76) =     20.31884  eV     2   --> G_4            
     e( 77 - 78) =     20.41411  eV     2   --> G_3            
     e( 77 - 78) =     20.41411  eV     2   --> G_4            
     e( 79 - 80) =     20.63805  eV     2   --> G_3            
     e( 79 - 80) =     20.63805  eV     2   --> G_4            
     e( 81 - 82) =     21.15041  eV     2   --> G_3            
     e( 81 - 82) =     21.15041  eV     2   --> G_4            
     e( 83 - 84) =     21.15177  eV     2   --> G_3            
     e( 83 - 84) =     21.15177  eV     2   --> G_4            
     e( 85 - 86) =     21.31670  eV     2   --> G_3            
     e( 85 - 86) =     21.31670  eV     2   --> G_4            
     e( 87 - 88) =     21.35796  eV     2   --> G_3            
     e( 87 - 88) =     21.35796  eV     2   --> G_4            
     e( 89 - 90) =     21.58439  eV     2   --> G_3            
     e( 89 - 90) =     21.58439  eV     2   --> G_4            
     e( 91 - 92) =     21.71038  eV     2   --> G_3            
     e( 91 - 92) =     21.71038  eV     2   --> G_4            
     e( 93 - 94) =     22.29096  eV     2   --> G_3            
     e( 93 - 94) =     22.29096  eV     2   --> G_4            
     e( 95 - 96) =     22.76334  eV     2   --> G_3            
     e( 95 - 96) =     22.76334  eV     2   --> G_4            
     e( 97 - 98) =     22.81862  eV     2   --> G_3            
     e( 97 - 98) =     22.81862  eV     2   --> G_4            
     e( 99 -100) =     23.19008  eV     2   --> G_3            
     e( 99 -100) =     23.19008  eV     2   --> G_4            

 **************************************************************************

 **************************************************************************

                    xk=(   0.10027,   0.05789,   0.00000  )

     Band symmetry, C_s (m)     double point group:

     e(  1 -  2) =    -17.48342  eV     2   --> G_3            
     e(  1 -  2) =    -17.48342  eV     2   --> G_4            
     e(  3 -  4) =     -6.04775  eV     2   --> G_3            
     e(  3 -  4) =     -6.04775  eV     2   --> G_4            
     e(  5 -  6) =     -5.16347  eV     2   --> G_3            
     e(  5 -  6) =     -5.16347  eV     2   --> G_4            
     e(  7 -  8) =     -4.70968  eV     2   --> G_3            
     e(  7 -  8) =     -4.70968  eV     2   --> G_4            
     e(  9 - 10) =     -0.64735  eV     2   --> G_3            
     e(  9 - 10) =     -0.64735  eV     2   --> G_4            
     e( 11 - 12) =      1.12107  eV     2   --> G_3            
     e( 11 - 12) =      1.12107  eV     2   --> G_4            
     e( 13 - 14) =      1.61205  eV     2   --> G_3            
     e( 13 - 14) =      1.61205  eV     2   --> G_4            
     e( 15 - 16) =      2.25561  eV     2   --> G_3            
     e( 15 - 16) =      2.25561  eV     2   --> G_4            
     e( 17 - 18) =      2.28620  eV     2   --> G_3            
     e( 17 - 18) =      2.28620  eV     2   --> G_4            
     e( 19 - 20) =      3.65427  eV     2   --> G_3            
     e( 19 - 20) =      3.65427  eV     2   --> G_4            
     e( 21 - 22) =      3.71918  eV     2   --> G_3            
     e( 21 - 22) =      3.71918  eV     2   --> G_4            
     e( 23 - 24) =      5.51806  eV     2   --> G_3            
     e( 23 - 24) =      5.51806  eV     2   --> G_4            
     e( 25 - 26) =      5.58482  eV     2   --> G_3            
     e( 25 - 26) =      5.58482  eV     2   --> G_4            
     e( 27 - 28) =      7.18160  eV     2   --> G_3            
     e( 27 - 28) =      7.18160  eV     2   --> G_4            
     e( 29 - 30) =      7.96814  eV     2   --> G_3            
     e( 29 - 30) =      7.96814  eV     2   --> G_4            
     e( 31 - 32) =      8.04105  eV     2   --> G_3            
     e( 31 - 32) =      8.04105  eV     2   --> G_4            
     e( 33 - 34) =      8.41434  eV     2   --> G_3            
     e( 33 - 34) =      8.41434  eV     2   --> G_4            
     e( 35 - 36) =     10.85898  eV     2   --> G_3            
     e( 35 - 36) =     10.85898  eV     2   --> G_4            
     e( 37 - 38) =     10.92185  eV     2   --> G_3            
     e( 37 - 38) =     10.92185  eV     2   --> G_4            
     e( 39 - 40) =     12.89620  eV     2   --> G_3            
     e( 39 - 40) =     12.89620  eV     2   --> G_4            
     e( 41 - 42) =     13.44368  eV     2   --> G_3            
     e( 41 - 42) =     13.44368  eV     2   --> G_4            
     e( 43 - 44) =     13.78339  eV     2   --> G_3            
     e( 43 - 44) =     13.78339  eV     2   --> G_4            
     e( 45 - 46) =     14.91994  eV     2   --> G_3            
     e( 45 - 46) =     14.91994  eV     2   --> G_4            
     e( 47 - 48) =     15.47711  eV     2   --> G_3            
     e( 47 - 48) =     15.47711  eV     2   --> G_4            
     e( 49 - 50) =     16.80754  eV     2   --> G_3            
     e( 49 - 50) =     16.80754  eV     2   --> G_4            
     e( 51 - 52) =     17.03233  eV     2   --> G_3            
     e( 51 - 52) =     17.03233  eV     2   --> G_4            
     e( 53 - 54) =     17.97483  eV     2   --> G_3            
     e( 53 - 54) =     17.97483  eV     2   --> G_4            
     e( 55 - 56) =     18.12638  eV     2   --> G_3            
     e( 55 - 56) =     18.12638  eV     2   --> G_4            
     e( 57 - 58) =     18.64549  eV     2   --> G_3            
     e( 57 - 58) =     18.64549  eV     2   --> G_4            
     e( 59 - 60) =     18.68906  eV     2   --> G_3            
     e( 59 - 60) =     18.68906  eV     2   --> G_4            
     e( 61 - 62) =     18.80460  eV     2   --> G_3            
     e( 61 - 62) =     18.80460  eV     2   --> G_4            
     e( 63 - 64) =     18.92289  eV     2   --> G_3            
     e( 63 - 64) =     18.92289  eV     2   --> G_4            
     e( 65 - 66) =     19.30063  eV     2   --> G_3            
     e( 65 - 66) =     19.30063  eV     2   --> G_4            
     e( 67 - 68) =     19.37160  eV     2   --> G_3            
     e( 67 - 68) =     19.37160  eV     2   --> G_4            
     e( 69 - 70) =     19.79222  eV     2   --> G_3            
     e( 69 - 70) =     19.79222  eV     2   --> G_4            
     e( 71 - 72) =     20.08054  eV     2   --> G_3            
     e( 71 - 72) =     20.08054  eV     2   --> G_4            
     e( 73 - 74) =     20.15649  eV     2   --> G_3            
     e( 73 - 74) =     20.15649  eV     2   --> G_4            
     e( 75 - 76) =     20.15866  eV     2   --> G_3            
     e( 75 - 76) =     20.15866  eV     2   --> G_4            
     e( 77 - 78) =     20.24828  eV     2   --> G_3            
     e( 77 - 78) =     20.24828  eV     2   --> G_4            
     e( 79 - 80) =     20.60745  eV     2   --> G_3            
     e( 79 - 80) =     20.60745  eV     2   --> G_4            
     e( 81 - 82) =     20.87820  eV     2   --> G_3            
     e( 81 - 82) =     20.87820  eV     2   --> G_4            
     e( 83 - 84) =     21.01960  eV     2   --> G_3            
     e( 83 - 84) =     21.01960  eV     2   --> G_4            
     e( 85 - 86) =     21.20366  eV     2   --> G_3            
     e( 85 - 86) =     21.20366  eV     2   --> G_4            
     e( 87 - 88) =     21.26731  eV     2   --> G_3            
     e( 87 - 88) =     21.26731  eV     2   --> G_4            
     e( 89 - 90) =     21.39879  eV     2   --> G_3            
     e( 89 - 90) =     21.39879  eV     2   --> G_4            
     e( 91 - 92) =     21.52630  eV     2   --> G_3            
     e( 91 - 92) =     21.52630  eV     2   --> G_4            
     e( 93 - 94) =     22.30723  eV     2   --> G_3            
     e( 93 - 94) =     22.30723  eV     2   --> G_4            
     e( 95 - 96) =     22.73537  eV     2   --> G_3            
     e( 95 - 96) =     22.73537  eV     2   --> G_4            
     e( 97 - 98) =     22.74721  eV     2   --> G_3            
     e( 97 - 98) =     22.74721  eV     2   --> G_4            
     e( 99 -100) =     23.04341  eV     2   --> G_3            
     e( 99 -100) =     23.04341  eV     2   --> G_4            

 **************************************************************************

 **************************************************************************

                    xk=(   0.11030,   0.06368,   0.00000  )

     Band symmetry, C_s (m)     double point group:

     e(  1 -  2) =    -17.46146  eV     2   --> G_3            
     e(  1 -  2) =    -17.46146  eV     2   --> G_4            
     e(  3 -  4) =     -6.01939  eV     2   --> G_3            
     e(  3 -  4) =     -6.01939  eV     2   --> G_4            
     e(  5 -  6) =     -5.26160  eV     2   --> G_3            
     e(  5 -  6) =     -5.26160  eV     2   --> G_4            
     e(  7 -  8) =     -4.72550  eV     2   --> G_3            
     e(  7 -  8) =     -4.72550  eV     2   --> G_4            
     e(  9 - 10) =     -0.58146  eV     2   --> G_3            
     e(  9 - 10) =     -0.58146  eV     2   --> G_4            
     e( 11 - 12) =      1.15374  eV     2   --> G_3            
     e( 11 - 12) =      1.15374  eV     2   --> G_4            
     e( 13 - 14) =      1.65689  eV     2   --> G_3            
     e( 13 - 14) =      1.65689  eV     2   --> G_4            
     e( 15 - 16) =      2.30491  eV     2   --> G_3            
     e( 15 - 16) =      2.30491  eV     2   --> G_4            
     e( 17 - 18) =      2.32245  eV     2   --> G_3            
     e( 17 - 18) =      2.32245  eV     2   --> G_4            
     e( 19 - 20) =      3.70502  eV     2   --> G_3            
     e( 19 - 20) =      3.70502  eV     2   --> G_4            
     e( 21 - 22) =      3.74479  eV     2   --> G_3            
     e( 21 - 22) =      3.74479  eV     2   --> G_4            
     e( 23 - 24) =      5.56289  eV     2   --> G_3            
     e( 23 - 24) =      5.56289  eV     2   --> G_4            
     e( 25 - 26) =      5.60084  eV     2   --> G_3            
     e( 25 - 26) =      5.60084  eV     2   --> G_4            
     e( 27 - 28) =      7.07874  eV     2   --> G_3            
     e( 27 - 28) =      7.07874  eV     2   --> G_4            
     e( 29 - 30) =      7.98076  eV     2   --> G_3            
     e( 29 - 30) =      7.98076  eV     2   --> G_4            
     e( 31 - 32) =      8.08208  eV     2   --> G_3            
     e( 31 - 32) =      8.08208  eV     2   --> G_4            
     e( 33 - 34) =      8.48432  eV     2   --> G_3            
     e( 33 - 34) =      8.48432  eV     2   --> G_4            
     e( 35 - 36) =     10.90903  eV     2   --> G_3            
     e( 35 - 36) =     10.90903  eV     2   --> G_4            
     e( 37 - 38) =     10.92107  eV     2   --> G_3            
     e( 37 - 38) =     10.92107  eV     2   --> G_4            
     e( 39 - 40) =     12.73705  eV     2   --> G_3            
     e( 39 - 40) =     12.73705  eV     2   --> G_4            
     e( 41 - 42) =     13.33233  eV     2   --> G_3            
     e( 41 - 42) =     13.33233  eV     2   --> G_4            
     e( 43 - 44) =     13.90378  eV     2   --> G_3            
     e( 43 - 44) =     13.90378  eV     2   --> G_4            
     e( 45 - 46) =     14.93603  eV     2   --> G_3            
     e( 45 - 46) =     14.93603  eV     2   --> G_4            
     e( 47 - 48) =     15.50570  eV     2   --> G_3            
     e( 47 - 48) =     15.50570  eV     2   --> G_4            
     e( 49 - 50) =     16.74977  eV     2   --> G_3            
     e( 49 - 50) =     16.74977  eV     2   --> G_4            
     e( 51 - 52) =     16.77739  eV     2   --> G_3            
     e( 51 - 52) =     16.77739  eV     2   --> G_4            
     e( 53 - 54) =     17.66485  eV     2   --> G_3            
     e( 53 - 54) =     17.66485  eV     2   --> G_4            
     e( 55 - 56) =     17.76648  eV     2   --> G_3            
     e( 55 - 56) =     17.76648  eV     2   --> G_4            
     e( 57 - 58) =     18.51072  eV     2   --> G_3            
     e( 57 - 58) =     18.51072  eV     2   --> G_4            
     e( 59 - 60) =     18.59438  eV     2   --> G_3            
     e( 59 - 60) =     18.59438  eV     2   --> G_4            
     e( 61 - 62) =     18.65973  eV     2   --> G_3            
     e( 61 - 62) =     18.65973  eV     2   --> G_4            
     e( 63 - 64) =     18.83227  eV     2   --> G_3            
     e( 63 - 64) =     18.83227  eV     2   --> G_4            
     e( 65 - 66) =     19.21426  eV     2   --> G_3            
     e( 65 - 66) =     19.21426  eV     2   --> G_4            
     e( 67 - 68) =     19.22325  eV     2   --> G_3            
     e( 67 - 68) =     19.22325  eV     2   --> G_4            
     e( 69 - 70) =     19.73538  eV     2   --> G_3            
     e( 69 - 70) =     19.73538  eV     2   --> G_4            
     e( 71 - 72) =     19.92680  eV     2   --> G_3            
     e( 71 - 72) =     19.92680  eV     2   --> G_4            
     e( 73 - 74) =     19.99749  eV     2   --> G_3            
     e( 73 - 74) =     19.99749  eV     2   --> G_4            
     e( 75 - 76) =     20.03013  eV     2   --> G_3            
     e( 75 - 76) =     20.03013  eV     2   --> G_4            
     e( 77 - 78) =     20.09011  eV     2   --> G_3            
     e( 77 - 78) =     20.09011  eV     2   --> G_4            
     e( 79 - 80) =     20.44433  eV     2   --> G_3            
[...]
     e( 85 - 86) =     22.02548  eV     2   -->   2 G_2            
     e( 87 - 88) =     22.05927  eV     2   -->   2 G_2            
     e( 89 - 90) =     22.07094  eV     2   -->   2 G_2            
     e( 91 - 91) =     22.11968  eV     1   --> G_2            
     e( 92 - 92) =     22.12003  eV     1   --> G_2            
     e( 93 - 94) =     22.58731  eV     2   -->   2 G_2            
     e( 95 - 95) =     22.62639  eV     1   --> G_2            
     e( 96 - 96) =     22.62679  eV     1   --> G_2            
     e( 97 - 98) =     23.01174  eV     2   -->   2 G_2            
     e( 99 -100) =     23.10002  eV     2   -->   2 G_2            

 **************************************************************************

 **************************************************************************

                    xk=(   0.02005,   0.03473,   0.00000  )

     Band symmetry, C_1 (1)     double point group:

     e(  1 -  2) =    -17.57705  eV     2   -->   2 G_2            
     e(  3 -  4) =     -6.16792  eV     2   -->   2 G_2            
     e(  5 -  5) =     -4.70254  eV     1   --> G_2            
     e(  6 -  6) =     -4.70138  eV     1   --> G_2            
     e(  7 -  7) =     -4.63972  eV     1   --> G_2            
     e(  8 -  8) =     -4.63853  eV     1   --> G_2            
     e(  9 - 10) =     -0.95981  eV     2   -->   2 G_2            
     e( 11 - 12) =      0.98023  eV     2   -->   2 G_2            
     e( 13 - 14) =      1.42193  eV     2   -->   2 G_2            
     e( 15 - 16) =      2.04277  eV     2   -->   2 G_2            
     e( 17 - 18) =      2.13239  eV     2   -->   2 G_2            
     e( 19 - 20) =      3.43432  eV     2   -->   2 G_2            
     e( 21 - 22) =      3.60748  eV     2   -->   2 G_2            
     e( 23 - 24) =      5.31557  eV     2   -->   2 G_2            
     e( 25 - 26) =      5.51626  eV     2   -->   2 G_2            
     e( 27 - 27) =      7.60335  eV     1   --> G_2            
     e( 28 - 28) =      7.60373  eV     1   --> G_2            
     e( 29 - 30) =      7.91592  eV     2   -->   2 G_2            
     e( 31 - 31) =      8.01199  eV     1   --> G_2            
     e( 32 - 32) =      8.01329  eV     1   --> G_2            
     e( 33 - 33) =      8.11582  eV     1   --> G_2            
     e( 34 - 34) =      8.11674  eV     1   --> G_2            
     e( 35 - 36) =     10.54575  eV     2   -->   2 G_2            
     e( 37 - 38) =     10.94276  eV     2   -->   2 G_2            
     e( 39 - 40) =     13.17921  eV     2   -->   2 G_2            
     e( 41 - 42) =     13.89007  eV     2   -->   2 G_2            
     e( 43 - 44) =     14.03368  eV     2   -->   2 G_2            
     e( 45 - 46) =     14.71416  eV     2   -->   2 G_2            
     e( 47 - 48) =     15.24306  eV     2   -->   2 G_2            
     e( 49 - 50) =     17.24660  eV     2   -->   2 G_2            
     e( 51 - 52) =     17.86023  eV     2   -->   2 G_2            
     e( 53 - 54) =     18.25988  eV     2   -->   2 G_2            
     e( 55 - 55) =     18.94483  eV     1   --> G_2            
     e( 56 - 56) =     18.94498  eV     1   --> G_2            
     e( 57 - 57) =     19.35126  eV     1   --> G_2            
     e( 58 - 58) =     19.35193  eV     1   --> G_2            
     e( 59 - 59) =     19.46482  eV     1   --> G_2            
     e( 60 - 60) =     19.46547  eV     1   --> G_2            
     e( 61 - 62) =     19.51535  eV     2   -->   2 G_2            
     e( 63 - 64) =     20.52843  eV     2   -->   2 G_2            
     e( 65 - 66) =     20.56555  eV     2   -->   2 G_2            
     e( 67 - 68) =     20.76940  eV     2   -->   2 G_2            
     e( 69 - 70) =     20.80464  eV     2   -->   2 G_2            
     e( 71 - 71) =     20.92921  eV     1   --> G_2            
     e( 72 - 72) =     20.92942  eV     1   --> G_2            
     e( 73 - 73) =     21.09524  eV     1   --> G_2            
     e( 74 - 74) =     21.09561  eV     1   --> G_2            
     e( 75 - 75) =     21.36352  eV     1   --> G_2            
     e( 76 - 76) =     21.36383  eV     1   --> G_2            
     e( 77 - 78) =     21.45910  eV     2   -->   2 G_2            
     e( 79 - 80) =     21.80393  eV     2   -->   2 G_2            
     e( 81 - 82) =     21.88443  eV     2   -->   2 G_2            
     e( 83 - 84) =     21.93704  eV     2   -->   2 G_2            
     e( 85 - 86) =     22.02582  eV     2   -->   2 G_2            
     e( 87 - 88) =     22.06352  eV     2   -->   2 G_2            
     e( 89 - 89) =     22.09603  eV     1   --> G_2            
     e( 90 - 90) =     22.09626  eV     1   --> G_2            
     e( 91 - 91) =     22.10769  eV     1   --> G_2            
     e( 92 - 92) =     22.10807  eV     1   --> G_2            
     e( 93 - 93) =     22.47679  eV     1   --> G_2            
     e( 94 - 94) =     22.47713  eV     1   --> G_2            
     e( 95 - 96) =     22.59466  eV     2   -->   2 G_2            
     e( 97 - 98) =     22.98891  eV     2   -->   2 G_2            
     e( 99 - 99) =     22.99962  eV     1   --> G_2            
     e(100 -100) =     22.99977  eV     1   --> G_2            

 **************************************************************************

 **************************************************************************

                    xk=(   0.01337,   0.02316,   0.00000  )

     Band symmetry, C_1 (1)     double point group:

     e(  1 -  2) =    -17.58425  eV     2   -->   2 G_2            
     e(  3 -  4) =     -6.17710  eV     2   -->   2 G_2            
     e(  5 -  5) =     -4.66420  eV     1   --> G_2            
     e(  6 -  6) =     -4.66350  eV     1   --> G_2            
     e(  7 -  7) =     -4.63277  eV     1   --> G_2            
     e(  8 -  8) =     -4.63205  eV     1   --> G_2            
     e(  9 - 10) =     -0.98667  eV     2   -->   2 G_2            
     e( 11 - 12) =      0.96933  eV     2   -->   2 G_2            
     e( 13 - 14) =      1.40735  eV     2   -->   2 G_2            
     e( 15 - 16) =      2.02621  eV     2   -->   2 G_2            
     e( 17 - 18) =      2.12062  eV     2   -->   2 G_2            
     e( 19 - 20) =      3.41720  eV     2   -->   2 G_2            
     e( 21 - 22) =      3.59874  eV     2   -->   2 G_2            
     e( 23 - 24) =      5.29951  eV     2   -->   2 G_2            
     e( 25 - 26) =      5.51094  eV     2   -->   2 G_2            
     e( 27 - 27) =      7.61653  eV     1   --> G_2            
     e( 28 - 28) =      7.61665  eV     1   --> G_2            
     e( 29 - 30) =      7.91210  eV     2   -->   2 G_2            
     e( 31 - 31) =      8.04004  eV     1   --> G_2            
     e( 32 - 32) =      8.04074  eV     1   --> G_2            
     e( 33 - 33) =      8.09450  eV     1   --> G_2            
     e( 34 - 34) =      8.09508  eV     1   --> G_2            
     e( 35 - 36) =     10.51570  eV     2   -->   2 G_2            
     e( 37 - 38) =     10.94280  eV     2   -->   2 G_2            
     e( 39 - 40) =     13.12574  eV     2   -->   2 G_2            
     e( 41 - 42) =     14.01562  eV     2   -->   2 G_2            
     e( 43 - 44) =     14.09325  eV     2   -->   2 G_2            
     e( 45 - 46) =     14.65748  eV     2   -->   2 G_2            
     e( 47 - 48) =     15.22249  eV     2   -->   2 G_2            
     e( 49 - 50) =     17.39496  eV     2   -->   2 G_2            
     e( 51 - 52) =     17.78411  eV     2   -->   2 G_2            
     e( 53 - 54) =     18.10081  eV     2   -->   2 G_2            
     e( 55 - 56) =     19.09631  eV     2   -->   2 G_2            
     e( 57 - 58) =     19.41138  eV     2   -->   2 G_2            
     e( 59 - 59) =     19.48444  eV     1   --> G_2            
     e( 60 - 60) =     19.48465  eV     1   --> G_2            
     e( 61 - 61) =     19.59374  eV     1   --> G_2            
     e( 62 - 62) =     19.59394  eV     1   --> G_2            
     e( 63 - 63) =     20.72877  eV     1   --> G_2            
     e( 64 - 64) =     20.72889  eV     1   --> G_2            
     e( 65 - 66) =     20.87280  eV     2   -->   2 G_2            
     e( 67 - 67) =     21.04780  eV     1   --> G_2            
     e( 68 - 68) =     21.04839  eV     1   --> G_2            
     e( 69 - 69) =     21.09449  eV     1   --> G_2            
     e( 70 - 70) =     21.09494  eV     1   --> G_2            
     e( 71 - 72) =     21.18108  eV     2   -->   2 G_2            
     e( 73 - 73) =     21.29677  eV     1   --> G_2            
     e( 74 - 74) =     21.29703  eV     1   --> G_2            
     e( 75 - 75) =     21.38155  eV     1   --> G_2            
     e( 76 - 76) =     21.38199  eV     1   --> G_2            
     e( 77 - 78) =     21.59109  eV     2   -->   2 G_2            
     e( 79 - 80) =     21.91837  eV     2   -->   2 G_2            
     e( 81 - 82) =     21.93621  eV     2   -->   2 G_2            
     e( 83 - 84) =     22.06605  eV     2   -->   2 G_2            
     e( 85 - 86) =     22.10249  eV     2   -->   2 G_2            
     e( 87 - 87) =     22.15720  eV     1   --> G_2            
     e( 88 - 88) =     22.15754  eV     1   --> G_2            
     e( 89 - 90) =     22.23278  eV     2   -->   2 G_2            
     e( 91 - 91) =     22.23696  eV     1   --> G_2            
     e( 92 - 92) =     22.23741  eV     1   --> G_2            
     e( 93 - 93) =     22.46697  eV     1   --> G_2            
     e( 94 - 94) =     22.46712  eV     1   --> G_2            
     e( 95 - 96) =     22.54693  eV     2   -->   2 G_2            
     e( 97 - 98) =     22.80621  eV     2   -->   2 G_2            
     e( 99 -100) =     22.83165  eV     2   -->   2 G_2            

 **************************************************************************

 **************************************************************************

                    xk=(   0.00668,   0.01158,   0.00000  )

     Band symmetry, C_1 (1)     double point group:

     e(  1 -  2) =    -17.58857  eV     2   -->   2 G_2            
     e(  3 -  4) =     -6.18261  eV     2   -->   2 G_2            
     e(  5 -  5) =     -4.64304  eV     1   --> G_2            
     e(  6 -  6) =     -4.64287  eV     1   --> G_2            
     e(  7 -  7) =     -4.62613  eV     1   --> G_2            
     e(  8 -  8) =     -4.62597  eV     1   --> G_2            
     e(  9 - 10) =     -1.00307  eV     2   -->   2 G_2            
     e( 11 - 12) =      0.96277  eV     2   -->   2 G_2            
     e( 13 - 14) =      1.39859  eV     2   -->   2 G_2            
     e( 15 - 16) =      2.01624  eV     2   -->   2 G_2            
     e( 17 - 18) =      2.11355  eV     2   -->   2 G_2            
     e( 19 - 20) =      3.40689  eV     2   -->   2 G_2            
     e( 21 - 22) =      3.59347  eV     2   -->   2 G_2            
     e( 23 - 24) =      5.28983  eV     2   -->   2 G_2            
     e( 25 - 26) =      5.50774  eV     2   -->   2 G_2            
     e( 27 - 28) =      7.62192  eV     2   -->   2 G_2            
     e( 29 - 30) =      7.90979  eV     2   -->   2 G_2            
     e( 31 - 31) =      8.05643  eV     1   --> G_2            
     e( 32 - 32) =      8.05659  eV     1   --> G_2            
     e( 33 - 33) =      8.08605  eV     1   --> G_2            
     e( 34 - 34) =      8.08619  eV     1   --> G_2            
     e( 35 - 36) =     10.49693  eV     2   -->   2 G_2            
     e( 37 - 38) =     10.94276  eV     2   -->   2 G_2            
     e( 39 - 40) =     13.09306  eV     2   -->   2 G_2            
     e( 41 - 42) =     14.10666  eV     2   -->   2 G_2            
     e( 43 - 44) =     14.12967  eV     2   -->   2 G_2            
     e( 45 - 46) =     14.60916  eV     2   -->   2 G_2            
     e( 47 - 48) =     15.21009  eV     2   -->   2 G_2            
     e( 49 - 50) =     17.56121  eV     2   -->   2 G_2            
     e( 51 - 52) =     17.73600  eV     2   -->   2 G_2            
     e( 53 - 54) =     17.92570  eV     2   -->   2 G_2            
     e( 55 - 56) =     19.15003  eV     2   -->   2 G_2            
     e( 57 - 58) =     19.34773  eV     2   -->   2 G_2            
     e( 59 - 60) =     19.63561  eV     2   -->   2 G_2            
     e( 61 - 62) =     19.67759  eV     2   -->   2 G_2            
     e( 63 - 63) =     20.89389  eV     1   --> G_2            
     e( 64 - 64) =     20.89408  eV     1   --> G_2            
     e( 65 - 65) =     21.05493  eV     1   --> G_2            
     e( 66 - 66) =     21.05581  eV     1   --> G_2            
     e( 67 - 67) =     21.11552  eV     1   --> G_2            
     e( 68 - 68) =     21.11622  eV     1   --> G_2            
     e( 69 - 70) =     21.12160  eV     2   -->   2 G_2            
     e( 71 - 72) =     21.54864  eV     2   -->   2 G_2            
     e( 73 - 73) =     21.62062  eV     1   --> G_2            
     e( 74 - 74) =     21.62074  eV     1   --> G_2            
     e( 75 - 75) =     21.64183  eV     1   --> G_2            
     e( 76 - 76) =     21.64193  eV     1   --> G_2            
     e( 77 - 78) =     21.68365  eV     2   -->   2 G_2            
     e( 79 - 80) =     21.82244  eV     2   -->   2 G_2            
     e( 81 - 82) =     21.97166  eV     2   -->   2 G_2            
     e( 83 - 84) =     22.05410  eV     2   -->   2 G_2            
     e( 85 - 85) =     22.08420  eV     1   --> G_2            
     e( 86 - 86) =     22.08431  eV     1   --> G_2            
     e( 87 - 88) =     22.15168  eV     2   -->   2 G_2            
     e( 89 - 90) =     22.32274  eV     2   -->   2 G_2            
     e( 91 - 92) =     22.36990  eV     2   -->   2 G_2            
     e( 93 - 94) =     22.48380  eV     2   -->   2 G_2            
     e( 95 - 96) =     22.51995  eV     2   -->   2 G_2            
     e( 97 - 97) =     22.58154  eV     1   --> G_2            
     e( 98 - 98) =     22.58181  eV     1   --> G_2            
     e( 99 - 99) =     22.66731  eV     1   --> G_2            
     e(100 -100) =     22.66765  eV     1   --> G_2            

 **************************************************************************

 **************************************************************************

                    xk=(   0.00000,   0.00000,   0.00000  )

     double point group C_3v (3m)  
     there are  6 classes and  3 irreducible representations
     the character table:

       E     -E    2C3   -2C3  3s_v  -3s_v
                                          
G_4    2.00 -2.00  1.00 -1.00  0.00  0.00
G_5    1.00 -1.00 -1.00  1.00  0.00  0.00
G_6    1.00 -1.00 -1.00  1.00  0.00  0.00

     imaginary part

       E     -E    2C3   -2C3  3s_v  -3s_v
                                          
G_4    0.00  0.00  0.00  0.00  0.00  0.00
G_5    0.00  0.00  0.00  0.00  1.00 -1.00
G_6    0.00  0.00  0.00  0.00 -1.00  1.00

     the symmetry operations in each class and the name of the first element:

     E             1
                                                                 
     -E           -1
                                                                 
     2C3           2    3
                                                                 
     -2C3         -2   -3
                                                                 
     3s_v          4   -5   -6
                                                                 
     3s_v          5    6   -4
                                                                 

     Band symmetry, C_3v (3m)   double point group:

     e(  1 -  2) =    -17.59001  eV     2   --> G_4   L_6      
     e(  3 -  4) =     -6.18446  eV     2   --> G_4   L_6      
     e(  5 -  6) =     -4.63765  eV     2   --> G_4   L_6      
     e(  7 -  8) =     -4.62221  eV     2   --> G_5   L_4      
     e(  7 -  8) =     -4.62221  eV     2   --> G_6   L_5      
     e(  9 - 10) =     -1.00859  eV     2   --> G_4   L_6      
     e( 11 - 12) =      0.96058  eV     2   --> G_4   L_6      
     e( 13 - 14) =      1.39567  eV     2   --> G_4   L_6      
     e( 15 - 16) =      2.01291  eV     2   --> G_4   L_6      
     e( 17 - 18) =      2.11119  eV     2   --> G_4   L_6      
     e( 19 - 20) =      3.40345  eV     2   --> G_4   L_6      
     e( 21 - 22) =      3.59171  eV     2   --> G_4   L_6      
     e( 23 - 24) =      5.28660  eV     2   --> G_4   L_6      
     e( 25 - 26) =      5.50666  eV     2   --> G_4   L_6      
     e( 27 - 28) =      7.62332  eV     2   --> G_4   L_6      
     e( 29 - 30) =      7.90902  eV     2   --> G_4   L_6      
     e( 31 - 32) =      8.05928  eV     2   --> G_4   L_6      
     e( 33 - 34) =      8.08644  eV     2   --> G_5   L_4      
     e( 33 - 34) =      8.08644  eV     2   --> G_6   L_5      
     e( 35 - 36) =     10.49053  eV     2   --> G_4   L_6      
     e( 37 - 38) =     10.94273  eV     2   --> G_4   L_6      
     e( 39 - 40) =     13.08207  eV     2   --> G_4   L_6      
     e( 41 - 42) =     14.14168  eV     2   --> G_4   L_6      
     e( 43 - 44) =     14.14212  eV     2   --> G_5   L_4      
     e( 43 - 44) =     14.14212  eV     2   --> G_6   L_5      
     e( 45 - 46) =     14.58842  eV     2   --> G_4   L_6      
     e( 47 - 48) =     15.20595  eV     2   --> G_4   L_6      
     e( 49 - 52) =     17.71956  eV     4   --> G_4   L_6      
     e( 49 - 52) =     17.71956  eV     4   --> G_5   L_4      
     e( 49 - 52) =     17.71956  eV     4   --> G_6   L_5      
     e( 53 - 54) =     17.76383  eV     2   --> G_4   L_6      
     e( 55 - 56) =     19.16169  eV     2   --> G_4   L_6      
     e( 57 - 58) =     19.32661  eV     2   --> G_4   L_6      
     e( 59 - 60) =     19.70360  eV     2   --> G_4   L_6      
     e( 61 - 62) =     19.70640  eV     2   --> G_5   L_4      
     e( 61 - 62) =     19.70640  eV     2   --> G_6   L_5      
     e( 63 - 64) =     20.92478  eV     2   --> G_4   L_6      
     e( 65 - 66) =     21.09372  eV     2   --> G_4   L_6      
     e( 67 - 68) =     21.09537  eV     2   --> G_5   L_4      
     e( 67 - 68) =     21.09537  eV     2   --> G_6   L_5      
     e( 69 - 70) =     21.22035  eV     2   --> G_4   L_6      
     e( 71 - 72) =     21.66412  eV     2   --> G_4   L_6      
     e( 73 - 76) =     21.77917  eV     4   --> G_4   L_6      
     e( 73 - 76) =     21.77917  eV     4   --> G_5   L_4      
     e( 73 - 76) =     21.77917  eV     4   --> G_6   L_5      
     e( 77 - 78) =     21.96714  eV     2   --> G_4   L_6      
     e( 79 - 80) =     21.96735  eV     2   --> G_5   L_4      
     e( 79 - 80) =     21.96735  eV     2   --> G_6   L_5      
     e( 81 - 84) =     22.03527  eV     4   --> G_4   L_6      
     e( 81 - 84) =     22.03527  eV     4   --> G_5   L_4      
     e( 81 - 84) =     22.03527  eV     4   --> G_6   L_5      
     e( 85 - 86) =     22.04432  eV     2   --> G_4   L_6      
     e( 87 - 88) =     22.06722  eV     2   --> G_4   L_6      
     e( 89 - 90) =     22.06741  eV     2   --> G_5   L_4      
     e( 89 - 90) =     22.06741  eV     2   --> G_6   L_5      
     e( 91 - 92) =     22.08344  eV     2   --> G_4   L_6      
     e( 93 - 94) =     22.20332  eV     2   --> G_4   L_6      
     e( 95 - 96) =     22.54072  eV     2   --> G_4   L_6      
     e( 97 - 98) =     22.73589  eV     2   --> G_4   L_6      
     e( 99 -100) =     22.73694  eV     2   --> G_5   L_4      
     e( 99 -100) =     22.73694  eV     2   --> G_6   L_5      

 **************************************************************************

     BANDS        :   3m35.66s CPU   3m58.65s WALL


   This run was terminated on:   3:36:26  14Mar2023            

=------------------------------------------------------------------------------=
   JOB DONE.
=------------------------------------------------------------------------------=
