
     Program PWSCF v.6.7MaX starts on 15Apr2023 at 13:27:25 

     This program is part of the open-source Quantum ESPRESSO suite
     for quantum simulation of materials; please cite
         "P. Giannozzi et al., J. Phys.:Condens. Matter 21 395502 (2009);
         "P. Giannozzi et al., J. Phys.:Condens. Matter 29 465901 (2017);
          URL http://www.quantum-espresso.org", 
     in publications or presentations arising from this work. More details at
     http://www.quantum-espresso.org/quote

     Parallel version (MPI), running on    32 processors

     MPI processes distributed on     1 nodes
     R & G space division:  proc/nbgrp/npool/nimage =      32
     Reading input from AlN.nscf.in
Warning: card / ignored
Warning: card &IONS ignored
Warning: card                                       ION_DYNAMICS = 'BFGS' ignored
Warning: card /&END ignored
Warning: card &CELL ignored
Warning: card                                       CELL_DOFREE = '2DXY' ignored
Warning: card                                      CELL_DYNAMICS = 'BFGS' ignored
Warning: card /&END ignored

     Current dimensions of program PWSCF are:
     Max number of different atomic species (ntypx) = 10
     Max number of k-points (npk) =  40000
     Max angular momentum in pseudopotentials (lmaxx) =  3

     Atomic positions and unit cell read from directory:
     ./AlN.save/
     Atomic positions from file used, from input discarded

     Message from routine read_pp_mesh:
     mesh size missing, using the one in header
     Message from routine read_pp_mesh:
     mesh size missing, using the one in header

     Subspace diagonalization in iterative solution of the eigenvalue problem:
     a serial algorithm will be used

     Message from routine setup:
     using ibrav=0 with symmetry is DISCOURAGED, use correct ibrav instead

     Parallelization info
     --------------------
     sticks:   dense  smooth     PW     G-vecs:    dense   smooth      PW
     Min          21      21      6                 3085     3085     488
     Max          22      22      7                 3110     3110     515
     Sum         673     673    199                99077    99077   15881



     bravais-lattice index     =            0
     lattice parameter (alat)  =       5.9220  a.u.
     unit-cell volume          =    1252.2258 (a.u.)^3
     number of atoms/cell      =            2
     number of atomic types    =            2
     number of electrons       =         8.00
     number of Kohn-Sham states=          150
     kinetic-energy cutoff     =      70.0000  Ry
     charge density cutoff     =     280.0000  Ry
     Exchange-correlation= PBE
                           (   1   4   3   4   0   0   0)
     Non magnetic calculation with spin-orbit


     celldm(1)=   5.922000  celldm(2)=   0.000000  celldm(3)=   7.000000
     celldm(4)=   0.000000  celldm(5)=   0.000000  celldm(6)=   0.000000

     crystal axes: (cart. coord. in units of alat)
               a(1) = (   0.997297   0.000000   0.000000 )  
               a(2) = (  -0.498648   0.863684   0.000000 )  
               a(3) = (   0.000000   0.000000   7.000000 )  

     reciprocal axes: (cart. coord. in units 2 pi/alat)
               b(1) = (  1.002711  0.578915 -0.000000 )  
               b(2) = (  0.000000  1.157831  0.000000 )  
               b(3) = (  0.000000 -0.000000  0.142857 )  


     PseudoPot. # 1 for Al read from file:
     /scratch/pyadav/AlN_aqua/bukled_dft/work_dir/pseudo/Al.upf
     MD5 check sum: 4974d48a734c9d7d1eb6780a1419d19d
     Pseudo is Norm-conserving + core correction, Zval =  3.0
     Generated using ONCVPSP code by D. R. Hamann
     Using radial grid of 1876 points, 10 beta functions with: 
                l(1) =   0
                l(2) =   0
                l(3) =   1
                l(4) =   1
                l(5) =   1
                l(6) =   1
                l(7) =   2
                l(8) =   2
                l(9) =   2
               l(10) =   2

     PseudoPot. # 2 for N  read from file:
     /scratch/pyadav/AlN_aqua/bukled_dft/work_dir/pseudo/N.upf
     MD5 check sum: ff7f9f91e4136e6855b4906c31c1cc72
     Pseudo is Norm-conserving + core correction, Zval =  5.0
     Generated using ONCVPSP code by D. R. Hamann
     Using radial grid of 1058 points,  6 beta functions with: 
                l(1) =   0
                l(2) =   0
                l(3) =   1
                l(4) =   1
                l(5) =   1
                l(6) =   1

     atomic species   valence    mass     pseudopotential
        Al             3.00    26.98150     Al( 1.00)
        N              5.00    14.00670     N ( 1.00)

      6 Sym. Ops. (no inversion) found


                                    s                        frac. trans.

      isym =  1     identity                                     

 cryst.   s( 1) = (     1          0          0      )
                  (     0          1          0      )
                  (     0          0          1      )

 cart.    s( 1) = (  1.0000000  0.0000000  0.0000000 )
                  (  0.0000000  1.0000000  0.0000000 )
                  (  0.0000000  0.0000000  1.0000000 )


      isym =  2     120 deg rotation - cryst. axis [0,0,1]       

 cryst.   s( 2) = (     0          1          0      )
                  (    -1         -1          0      )
                  (     0          0          1      )

 cart.    s( 2) = ( -0.5000000 -0.8660254  0.0000000 )
                  (  0.8660254 -0.5000000  0.0000000 )
                  (  0.0000000  0.0000000  1.0000000 )


      isym =  3     120 deg rotation - cryst. axis [0,0,-1]      

 cryst.   s( 3) = (    -1         -1          0      )
                  (     1          0          0      )
                  (     0          0          1      )

 cart.    s( 3) = ( -0.5000000  0.8660254  0.0000000 )
                  ( -0.8660254 -0.5000000  0.0000000 )
                  (  0.0000000  0.0000000  1.0000000 )


      isym =  4     inv. 180 deg rotation - cart. axis [1,0,0]   

 cryst.   s( 4) = (    -1          0          0      )
                  (     1          1          0      )
                  (     0          0          1      )

 cart.    s( 4) = ( -1.0000000  0.0000000  0.0000000 )
                  (  0.0000000  1.0000000  0.0000000 )
                  (  0.0000000  0.0000000  1.0000000 )


      isym =  5     inv. 180 deg rotation - cryst. axis [0,1,0]  

 cryst.   s( 5) = (     1          1          0      )
                  (     0         -1          0      )
                  (     0          0          1      )

 cart.    s( 5) = (  0.5000000  0.8660254  0.0000000 )
                  (  0.8660254 -0.5000000  0.0000000 )
                  (  0.0000000  0.0000000  1.0000000 )


      isym =  6     inv. 180 deg rotation - cryst. axis [1,1,0]  

 cryst.   s( 6) = (     0         -1          0      )
                  (    -1          0          0      )
                  (     0          0          1      )

 cart.    s( 6) = (  0.5000000 -0.8660254  0.0000000 )
                  ( -0.8660254 -0.5000000  0.0000000 )
                  (  0.0000000  0.0000000  1.0000000 )


   Cartesian axes

     site n.     atom                  positions (alat units)
         1           Al  tau(   1) = (   0.4986484   0.2878947   0.2446705  )
         2           N   tau(   2) = (  -0.4986484  -0.2878947   0.2446624  )

   Crystallographic axes

     site n.     atom                  positions (cryst. coord.)
         1           Al  tau(   1) = (  0.6666667  0.3333333  0.0349529  )
         2           N   tau(   2) = ( -0.6666667 -0.3333333  0.0349518  )

     number of k points=    19
                       cart. coord. in units 2pi/alat
        k(    1) = (   0.0000000   0.0000000   0.0000000), wk =   0.0069444
        k(    2) = (   0.0000000   0.0964859   0.0000000), wk =   0.0416667
        k(    3) = (   0.0000000   0.1929718   0.0000000), wk =   0.0416667
        k(    4) = (   0.0000000   0.2894576   0.0000000), wk =   0.0416667
        k(    5) = (   0.0000000   0.3859435   0.0000000), wk =   0.0416667
        k(    6) = (   0.0000000   0.4824294   0.0000000), wk =   0.0416667
        k(    7) = (   0.0000000  -0.5789153   0.0000000), wk =   0.0208333
        k(    8) = (   0.0835592   0.1447288   0.0000000), wk =   0.0416667
        k(    9) = (   0.0835592   0.2412147   0.0000000), wk =   0.0833333
        k(   10) = (   0.0835592   0.3377006   0.0000000), wk =   0.0833333
        k(   11) = (   0.0835592   0.4341864   0.0000000), wk =   0.0833333
        k(   12) = (   0.0835592   0.5306723   0.0000000), wk =   0.0833333
        k(   13) = (   0.1671184   0.2894576   0.0000000), wk =   0.0416667
        k(   14) = (   0.1671184   0.3859435   0.0000000), wk =   0.0833333
        k(   15) = (   0.1671184   0.4824294   0.0000000), wk =   0.0833333
        k(   16) = (   0.1671184   0.5789153   0.0000000), wk =   0.0416667
        k(   17) = (   0.2506777   0.4341864   0.0000000), wk =   0.0416667
        k(   18) = (   0.2506777   0.5306723   0.0000000), wk =   0.0833333
        k(   19) = (   0.3342369   0.5789153   0.0000000), wk =   0.0138889

                       cryst. coord.
        k(    1) = (   0.0000000   0.0000000   0.0000000), wk =   0.0069444
        k(    2) = (   0.0000000   0.0833333   0.0000000), wk =   0.0416667
        k(    3) = (   0.0000000   0.1666667   0.0000000), wk =   0.0416667
        k(    4) = (   0.0000000   0.2500000   0.0000000), wk =   0.0416667
        k(    5) = (   0.0000000   0.3333333   0.0000000), wk =   0.0416667
        k(    6) = (   0.0000000   0.4166667   0.0000000), wk =   0.0416667
        k(    7) = (   0.0000000  -0.5000000   0.0000000), wk =   0.0208333
        k(    8) = (   0.0833333   0.0833333   0.0000000), wk =   0.0416667
        k(    9) = (   0.0833333   0.1666667   0.0000000), wk =   0.0833333
        k(   10) = (   0.0833333   0.2500000   0.0000000), wk =   0.0833333
        k(   11) = (   0.0833333   0.3333333   0.0000000), wk =   0.0833333
        k(   12) = (   0.0833333   0.4166667   0.0000000), wk =   0.0833333
        k(   13) = (   0.1666667   0.1666667   0.0000000), wk =   0.0416667
        k(   14) = (   0.1666667   0.2500000   0.0000000), wk =   0.0833333
        k(   15) = (   0.1666667   0.3333333   0.0000000), wk =   0.0833333
        k(   16) = (   0.1666667   0.4166667   0.0000000), wk =   0.0416667
        k(   17) = (   0.2500000   0.2500000   0.0000000), wk =   0.0416667
        k(   18) = (   0.2500000   0.3333333   0.0000000), wk =   0.0833333
        k(   19) = (   0.3333333   0.3333333   0.0000000), wk =   0.0138889

     Dense  grid:    99077 G-vectors     FFT dimensions: (  32,  32, 225)

     Dynamical RAM for                 wfc:       1.77 MB

     Dynamical RAM for     wfc (w. buffer):       1.77 MB

     Dynamical RAM for           str. fact:       0.09 MB

     Dynamical RAM for           local pot:       0.00 MB

     Dynamical RAM for          nlocal pot:       0.28 MB

     Dynamical RAM for                qrad:       7.04 MB

     Dynamical RAM for          rho,v,vnew:       1.32 MB

     Dynamical RAM for           G-vectors:       0.20 MB

     Dynamical RAM for          h,s,v(r/c):       4.12 MB

     Dynamical RAM for          <psi|beta>:       0.22 MB

     Dynamical RAM for                 psi:       3.54 MB

     Dynamical RAM for                hpsi:       3.54 MB

     Dynamical RAM for      wfcinit/wfcrot:       3.17 MB

     Estimated static dynamical RAM per process >      11.35 MB

     Estimated max dynamical RAM per process >      22.78 MB

     Estimated total dynamical RAM >     728.83 MB

     The potential is recalculated from file :
     ./AlN.save/charge-density

     Starting wfcs are   16 randomized atomic wfcs +  134 random wfcs

     Band Structure Calculation
     Davidson diagonalization with overlap

     Computing kpt #:     1  of    19
     total cpu time spent up to now is       18.6 secs

     Computing kpt #:     2  of    19
     total cpu time spent up to now is       35.5 secs

     Computing kpt #:     3  of    19
     total cpu time spent up to now is       51.0 secs

     Computing kpt #:     4  of    19
     total cpu time spent up to now is       65.3 secs

     Computing kpt #:     5  of    19
     total cpu time spent up to now is       81.0 secs

     Computing kpt #:     6  of    19
     total cpu time spent up to now is       92.8 secs

     Computing kpt #:     7  of    19
     total cpu time spent up to now is      104.8 secs

     Computing kpt #:     8  of    19
     total cpu time spent up to now is      120.5 secs

     Computing kpt #:     9  of    19
     total cpu time spent up to now is      134.0 secs

     Computing kpt #:    10  of    19
     total cpu time spent up to now is      148.3 secs

     Computing kpt #:    11  of    19
     total cpu time spent up to now is      161.6 secs

     Computing kpt #:    12  of    19
     total cpu time spent up to now is      176.0 secs

     Computing kpt #:    13  of    19
     total cpu time spent up to now is      189.3 secs

     Computing kpt #:    14  of    19
     total cpu time spent up to now is      203.0 secs

     Computing kpt #:    15  of    19
     total cpu time spent up to now is      217.4 secs

     Computing kpt #:    16  of    19
     total cpu time spent up to now is      229.6 secs

     Computing kpt #:    17  of    19
     total cpu time spent up to now is      243.3 secs

     Computing kpt #:    18  of    19
     total cpu time spent up to now is      256.1 secs

     Computing kpt #:    19  of    19
     total cpu time spent up to now is      270.5 secs

     ethr =  1.25E-12,  avg # of iterations = 57.1

     total cpu time spent up to now is      270.5 secs

     End of band structure calculation

          k = 0.0000 0.0000 0.0000 ( 12309 PWs)   bands (ev):

   -17.5900 -17.5900  -6.1845  -6.1845  -4.6377  -4.6377  -4.6222  -4.6222
    -1.0086  -1.0086   0.9606   0.9606   1.3957   1.3957   2.0129   2.0129
     2.1112   2.1112   3.4035   3.4035   3.5917   3.5917   5.2866   5.2866
     5.5067   5.5067   7.6233   7.6233   7.9090   7.9090   8.0593   8.0593
     8.0864   8.0864  10.4905  10.4905  10.9427  10.9427  13.0821  13.0821
    14.1417  14.1417  14.1421  14.1421  14.5884  14.5884  15.2059  15.2059
    17.7196  17.7196  17.7196  17.7196  17.7638  17.7638  19.1617  19.1617
    19.3266  19.3266  19.7036  19.7036  19.7064  19.7064  20.9248  20.9248
    21.0937  21.0937  21.0954  21.0954  21.2203  21.2203  21.6641  21.6641
    21.7792  21.7792  21.7792  21.7792  21.9671  21.9671  21.9674  21.9674
    22.0353  22.0353  22.0353  22.0353  22.0443  22.0443  22.0672  22.0672
    22.0674  22.0674  22.0834  22.0834  22.2033  22.2033  22.5407  22.5407
    22.7359  22.7359  22.7369  22.7369  22.8858  22.8858  22.8858  22.8858
    23.0986  23.0986  23.1482  23.1482  23.1482  23.1482  23.1944  23.1944
    23.2227  23.2227  23.2234  23.2234  23.5627  23.5627  23.8646  23.8646
    24.3318  24.3318  24.3338  24.3338  24.3368  24.3368  24.6864  24.6864
    24.7230  24.7230  24.7230  24.7230  25.0409  25.0409  25.0949  25.0949
    25.0949  25.0949  25.1457  25.1457  25.1467  25.1467  25.2753  25.2753
    25.7139  25.7139  26.5188  26.5188  26.5228  26.5228

     occupation numbers 
     1.0000   1.0000   1.0000   1.0000   1.0000   1.0000   1.0000   1.0000
     0.0000   0.0000   0.0000   0.0000   0.0000   0.0000   0.0000   0.0000
     0.0000   0.0000   0.0000   0.0000   0.0000   0.0000   0.0000   0.0000
     0.0000   0.0000   0.0000   0.0000   0.0000   0.0000   0.0000   0.0000
     0.0000   0.0000   0.0000   0.0000   0.0000   0.0000   0.0000   0.0000
     0.0000   0.0000   0.0000   0.0000   0.0000   0.0000   0.0000   0.0000
     0.0000   0.0000   0.0000   0.0000   0.0000   0.0000   0.0000   0.0000
     0.0000   0.0000   0.0000   0.0000   0.0000   0.0000   0.0000   0.0000
     0.0000   0.0000   0.0000   0.0000   0.0000   0.0000   0.0000   0.0000
     0.0000   0.0000   0.0000   0.0000   0.0000   0.0000   0.0000   0.0000
     0.0000   0.0000   0.0000   0.0000   0.0000   0.0000   0.0000   0.0000
     0.0000   0.0000   0.0000   0.0000   0.0000   0.0000   0.0000   0.0000
     0.0000   0.0000   0.0000   0.0000   0.0000   0.0000   0.0000   0.0000
     0.0000   0.0000   0.0000   0.0000   0.0000   0.0000   0.0000   0.0000
     0.0000   0.0000   0.0000   0.0000   0.0000   0.0000   0.0000   0.0000
     0.0000   0.0000   0.0000   0.0000   0.0000   0.0000   0.0000   0.0000
     0.0000   0.0000   0.0000   0.0000   0.0000   0.0000   0.0000   0.0000
     0.0000   0.0000   0.0000   0.0000   0.0000   0.0000   0.0000   0.0000
     0.0000   0.0000   0.0000   0.0000   0.0000   0.0000

          k = 0.0000 0.0965 0.0000 ( 12337 PWs)   bands (ev):

   -17.5156 -17.5156  -6.0892  -6.0892  -5.0132  -5.0132  -4.6860  -4.6860
    -0.7484  -0.7484   1.0729   1.0729   1.5465   1.5465   2.1829   2.1829
     2.2331   2.2331   3.5792   3.5792   3.6812   3.6812   5.4501   5.4501
     5.5613   5.5613   7.3419   7.3419   7.9498   7.9498   7.9898   7.9899
     8.3115   8.3115  10.7623  10.7623  10.9343  10.9343  13.1680  13.1680
    13.5932  13.5932  13.6225  13.6225  14.8868  14.8868  15.4087  15.4087
    16.8644  16.8644  17.5370  17.5370  18.4132  18.4132  18.4424  18.4424
    18.7302  18.7302  18.8726  18.8726  18.9742  18.9742  19.2034  19.2034
    19.6572  19.6572  19.6805  19.6805  20.0360  20.0360  20.3267  20.3267
    20.4038  20.4038  20.4287  20.4287  20.5284  20.5284  20.6001  20.6001
    21.2324  21.2324  21.3225  21.3225  21.3741  21.3741  21.4642  21.4642
    21.7658  21.7658  21.8327  21.8327  22.2642  22.2642  22.7314  22.7314
    22.8587  22.8587  23.2811  23.2811  23.2908  23.2908  23.3246  23.3246
    23.7437  23.7437  23.8179  23.8179  23.8224  23.8224  23.8893  23.8893
    24.0202  24.0202  24.1859  24.1859  24.3599  24.3599  24.4616  24.4616
    24.6828  24.6828  24.6952  24.6952  24.8502  24.8502  24.8560  24.8560
    25.2419  25.2419  25.4904  25.4904  25.5463  25.5463  25.5624  25.5624
    25.7606  25.7606  25.9166  25.9166  25.9631  25.9631  26.4206  26.4206
    26.4527  26.4527  26.6927  26.6927  26.8033  26.8033

     occupation numbers 
     1.0000   1.0000   1.0000   1.0000   1.0000   1.0000   1.0000   1.0000
     0.0000   0.0000   0.0000   0.0000   0.0000   0.0000   0.0000   0.0000
     0.0000   0.0000   0.0000   0.0000   0.0000   0.0000   0.0000   0.0000
     0.0000   0.0000   0.0000   0.0000   0.0000   0.0000   0.0000   0.0000
     0.0000   0.0000   0.0000   0.0000   0.0000   0.0000   0.0000   0.0000
     0.0000   0.0000   0.0000   0.0000   0.0000   0.0000   0.0000   0.0000
     0.0000   0.0000   0.0000   0.0000   0.0000   0.0000   0.0000   0.0000
     0.0000   0.0000   0.0000   0.0000   0.0000   0.0000   0.0000   0.0000
     0.0000   0.0000   0.0000   0.0000   0.0000   0.0000   0.0000   0.0000
     0.0000   0.0000   0.0000   0.0000   0.0000   0.0000   0.0000   0.0000
     0.0000   0.0000   0.0000   0.0000   0.0000   0.0000   0.0000   0.0000
     0.0000   0.0000   0.0000   0.0000   0.0000   0.0000   0.0000   0.0000
     0.0000   0.0000   0.0000   0.0000   0.0000   0.0000   0.0000   0.0000
     0.0000   0.0000   0.0000   0.0000   0.0000   0.0000   0.0000   0.0000
     0.0000   0.0000   0.0000   0.0000   0.0000   0.0000   0.0000   0.0000
     0.0000   0.0000   0.0000   0.0000   0.0000   0.0000   0.0000   0.0000
     0.0000   0.0000   0.0000   0.0000   0.0000   0.0000   0.0000   0.0000
     0.0000   0.0000   0.0000   0.0000   0.0000   0.0000   0.0000   0.0000
     0.0000   0.0000   0.0000   0.0000   0.0000   0.0000

          k = 0.0000 0.1930 0.0000 ( 12357 PWs)   bands (ev):

   -17.3026 -17.3026  -5.8951  -5.8950  -5.8120  -5.8120  -4.8342  -4.8342
    -0.1518  -0.1518   1.3834   1.3834   1.9871   1.9871   2.5866   2.5866
     2.6576   2.6576   3.9238   3.9238   4.0612   4.0613   5.7198   5.7198
     5.8007   5.8007   6.5664   6.5664   8.0754   8.0754   8.4203   8.4203
     8.9885   8.9885  10.6720  10.6720  11.3234  11.3234  12.0737  12.0737
    12.6895  12.6895  14.4894  14.4894  14.7528  14.7528  14.9945  14.9945
    15.6719  15.6719  15.7483  15.7483  16.2818  16.2818  16.6059  16.6059
    16.9317  16.9317  17.1138  17.1138  17.7958  17.7958  18.3613  18.3613
    18.5804  18.5804  18.8866  18.8866  18.9055  18.9055  19.1678  19.1678
    19.2469  19.2469  19.2701  19.2701  19.7259  19.7259  19.8660  19.8660
    19.9403  19.9403  20.1213  20.1213  20.2870  20.2870  20.5496  20.5496
    20.6506  20.6506  21.0731  21.0731  21.1716  21.1716  21.7650  21.7650
    22.1483  22.1483  22.1495  22.1495  22.4384  22.4384  23.0347  23.0347
    23.6323  23.6323  23.6682  23.6682  24.4214  24.4214  24.5815  24.5815
    24.6417  24.6417  24.7871  24.7871  24.9784  24.9784  25.0643  25.0643
    25.1111  25.1111  25.4453  25.4453  25.9248  25.9248  25.9600  25.9600
    25.9719  25.9719  26.0193  26.0193  26.3848  26.3848  26.4592  26.4592
    26.7723  26.7723  26.9810  26.9810  27.3058  27.3058  27.3955  27.3955
    27.5015  27.5015  27.9018  27.9018  28.2852  28.2852

     occupation numbers 
     1.0000   1.0000   1.0000   1.0000   1.0000   1.0000   1.0000   1.0000
     0.0000   0.0000   0.0000   0.0000   0.0000   0.0000   0.0000   0.0000
     0.0000   0.0000   0.0000   0.0000   0.0000   0.0000   0.0000   0.0000
     0.0000   0.0000   0.0000   0.0000   0.0000   0.0000   0.0000   0.0000
     0.0000   0.0000   0.0000   0.0000   0.0000   0.0000   0.0000   0.0000
     0.0000   0.0000   0.0000   0.0000   0.0000   0.0000   0.0000   0.0000
     0.0000   0.0000   0.0000   0.0000   0.0000   0.0000   0.0000   0.0000
     0.0000   0.0000   0.0000   0.0000   0.0000   0.0000   0.0000   0.0000
     0.0000   0.0000   0.0000   0.0000   0.0000   0.0000   0.0000   0.0000
     0.0000   0.0000   0.0000   0.0000   0.0000   0.0000   0.0000   0.0000
     0.0000   0.0000   0.0000   0.0000   0.0000   0.0000   0.0000   0.0000
     0.0000   0.0000   0.0000   0.0000   0.0000   0.0000   0.0000   0.0000
     0.0000   0.0000   0.0000   0.0000   0.0000   0.0000   0.0000   0.0000
     0.0000   0.0000   0.0000   0.0000   0.0000   0.0000   0.0000   0.0000
     0.0000   0.0000   0.0000   0.0000   0.0000   0.0000   0.0000   0.0000
     0.0000   0.0000   0.0000   0.0000   0.0000   0.0000   0.0000   0.0000
     0.0000   0.0000   0.0000   0.0000   0.0000   0.0000   0.0000   0.0000
     0.0000   0.0000   0.0000   0.0000   0.0000   0.0000   0.0000   0.0000
     0.0000   0.0000   0.0000   0.0000   0.0000   0.0000

          k = 0.0000 0.2895 0.0000 ( 12370 PWs)   bands (ev):

   -16.9841 -16.9841  -6.9145  -6.9145  -5.3831  -5.3831  -5.0242  -5.0242
     0.5974   0.5975   1.7613   1.7613   2.6993   2.6993   3.1298   3.1298
     3.3549   3.3549   4.2793   4.2793   4.6301   4.6301   5.5488   5.5488
     6.0211   6.0211   6.9172   6.9172   8.2344   8.2344   9.1389   9.1389
     9.9447   9.9447   9.9904   9.9904  11.8391  11.8391  11.8557  11.8557
    12.1016  12.1016  12.4565  12.4565  13.0384  13.0384  13.1021  13.1021
    14.0650  14.0650  14.2308  14.2308  15.3047  15.3047  15.6300  15.6300
    15.9854  15.9854  16.0129  16.0129  16.7731  16.7731  16.9683  16.9683
    17.1601  17.1601  18.0074  18.0074  18.1040  18.1040  18.1828  18.1828
    18.3538  18.3538  18.4934  18.4934  18.7314  18.7314  18.7904  18.7904
    19.0919  19.0919  19.1864  19.1864  19.5711  19.5711  19.7271  19.7271
    20.6432  20.6432  20.7264  20.7264  20.8914  20.8914  20.8966  20.8966
    21.3869  21.3869  21.4433  21.4433  21.8421  21.8421  21.9254  21.9254
    22.6245  22.6245  23.0293  23.0293  23.7697  23.7697  23.8081  23.8081
    23.8683  23.8683  24.5060  24.5060  24.7579  24.7579  25.0770  25.0770
    25.6893  25.6893  25.8636  25.8636  26.8210  26.8210  26.9010  26.9010
    26.9180  26.9180  27.1638  27.1638  27.3386  27.3386  27.4119  27.4119
    27.8584  27.8584  28.0244  28.0244  28.3508  28.3508  28.4402  28.4402
    28.4829  28.4829  28.5291  28.5291  29.2160  29.2160

     occupation numbers 
     1.0000   1.0000   1.0000   1.0000   1.0000   1.0000   1.0000   1.0000
     0.0000   0.0000   0.0000   0.0000   0.0000   0.0000   0.0000   0.0000
     0.0000   0.0000   0.0000   0.0000   0.0000   0.0000   0.0000   0.0000
     0.0000   0.0000   0.0000   0.0000   0.0000   0.0000   0.0000   0.0000
     0.0000   0.0000   0.0000   0.0000   0.0000   0.0000   0.0000   0.0000
     0.0000   0.0000   0.0000   0.0000   0.0000   0.0000   0.0000   0.0000
     0.0000   0.0000   0.0000   0.0000   0.0000   0.0000   0.0000   0.0000
     0.0000   0.0000   0.0000   0.0000   0.0000   0.0000   0.0000   0.0000
     0.0000   0.0000   0.0000   0.0000   0.0000   0.0000   0.0000   0.0000
     0.0000   0.0000   0.0000   0.0000   0.0000   0.0000   0.0000   0.0000
     0.0000   0.0000   0.0000   0.0000   0.0000   0.0000   0.0000   0.0000
     0.0000   0.0000   0.0000   0.0000   0.0000   0.0000   0.0000   0.0000
     0.0000   0.0000   0.0000   0.0000   0.0000   0.0000   0.0000   0.0000
     0.0000   0.0000   0.0000   0.0000   0.0000   0.0000   0.0000   0.0000
     0.0000   0.0000   0.0000   0.0000   0.0000   0.0000   0.0000   0.0000
     0.0000   0.0000   0.0000   0.0000   0.0000   0.0000   0.0000   0.0000
     0.0000   0.0000   0.0000   0.0000   0.0000   0.0000   0.0000   0.0000
     0.0000   0.0000   0.0000   0.0000   0.0000   0.0000   0.0000   0.0000
     0.0000   0.0000   0.0000   0.0000   0.0000   0.0000

          k = 0.0000 0.3859 0.0000 ( 12412 PWs)   bands (ev):

   -16.6243 -16.6243  -7.8450  -7.8450  -5.2023  -5.2023  -4.8705  -4.8705
     1.4025   1.4025   1.8603   1.8603   3.6223   3.6223   3.8592   3.8592
     4.0351   4.0351   4.8537   4.8537   4.8813   4.8813   6.0436   6.0436
     6.5433   6.5433   7.7400   7.7400   8.2144   8.2144   9.5946   9.5946
     9.9045   9.9045  10.4203  10.4203  10.7266  10.7266  10.7911  10.7911
    11.1103  11.1103  11.1991  11.1991  11.7373  11.7373  11.9200  11.9200
    12.8464  12.8464  13.1071  13.1071  13.6209  13.6209  13.9699  13.9699
    15.5593  15.5593  15.9293  15.9293  16.4446  16.4446  16.4824  16.4824
    16.5133  16.5133  16.9708  16.9708  17.2515  17.2515  17.3126  17.3126
    17.4757  17.4757  17.4884  17.4884  18.0231  18.0231  18.4029  18.4029
    18.4046  18.4046  18.5429  18.5429  19.0352  19.0352  19.4205  19.4205
    19.7698  19.7698  19.9794  19.9794  20.2492  20.2492  20.2661  20.2661
    20.8969  20.8969  21.0660  21.0660  21.8781  21.8781  21.9083  21.9083
    22.2570  22.2570  22.7067  22.7067  22.7970  22.7970  23.2316  23.2316
    23.6697  23.6697  23.7155  23.7155  24.0421  24.0421  25.1050  25.1050
    25.2126  25.2126  26.0706  26.0706  26.4485  26.4485  26.4811  26.4811
    26.6619  26.6619  26.6684  26.6684  27.2863  27.2863  27.7007  27.7007
    28.6370  28.6370  29.4200  29.4200  29.6456  29.6456  29.9702  29.9702
    30.0547  30.0547  30.3639  30.3639  30.7234  30.7234

     occupation numbers 
     1.0000   1.0000   1.0000   1.0000   1.0000   1.0000   1.0000   1.0000
     0.0000   0.0000   0.0000   0.0000   0.0000   0.0000   0.0000   0.0000
     0.0000   0.0000   0.0000   0.0000   0.0000   0.0000   0.0000   0.0000
     0.0000   0.0000   0.0000   0.0000   0.0000   0.0000   0.0000   0.0000
     0.0000   0.0000   0.0000   0.0000   0.0000   0.0000   0.0000   0.0000
     0.0000   0.0000   0.0000   0.0000   0.0000   0.0000   0.0000   0.0000
     0.0000   0.0000   0.0000   0.0000   0.0000   0.0000   0.0000   0.0000
     0.0000   0.0000   0.0000   0.0000   0.0000   0.0000   0.0000   0.0000
     0.0000   0.0000   0.0000   0.0000   0.0000   0.0000   0.0000   0.0000
     0.0000   0.0000   0.0000   0.0000   0.0000   0.0000   0.0000   0.0000
     0.0000   0.0000   0.0000   0.0000   0.0000   0.0000   0.0000   0.0000
     0.0000   0.0000   0.0000   0.0000   0.0000   0.0000   0.0000   0.0000
     0.0000   0.0000   0.0000   0.0000   0.0000   0.0000   0.0000   0.0000
     0.0000   0.0000   0.0000   0.0000   0.0000   0.0000   0.0000   0.0000
     0.0000   0.0000   0.0000   0.0000   0.0000   0.0000   0.0000   0.0000
     0.0000   0.0000   0.0000   0.0000   0.0000   0.0000   0.0000   0.0000
     0.0000   0.0000   0.0000   0.0000   0.0000   0.0000   0.0000   0.0000
     0.0000   0.0000   0.0000   0.0000   0.0000   0.0000   0.0000   0.0000
     0.0000   0.0000   0.0000   0.0000   0.0000   0.0000

          k = 0.0000 0.4824 0.0000 ( 12390 PWs)   bands (ev):

   -16.3251 -16.3251  -8.5093  -8.5093  -5.3259  -5.3259  -4.4109  -4.4109
     1.5784   1.5784   2.0321   2.0321   4.1046   4.1046   4.8535   4.8535
     5.0231   5.0231   5.7033   5.7033   5.8217   5.8217   6.8119   6.8119
     7.0497   7.0497   7.9312   7.9312   8.2658   8.2658   8.4901   8.4901
     8.8418   8.8418   9.0838   9.0838   9.7424   9.7424   9.9825   9.9825
    10.8069  10.8069  10.9304  10.9304  11.1605  11.1605  11.6538  11.6538
    12.0131  12.0131  12.1956  12.1956  13.7269  13.7269  13.9936  13.9936
    14.2116  14.2116  14.9220  14.9220  15.8793  15.8793  16.0517  16.0517
    16.3587  16.3587  16.8913  16.8913  17.0271  17.0271  17.0992  17.0992
    17.1734  17.1734  17.4764  17.4764  17.6726  17.6726  17.9829  17.9829
    18.0458  18.0458  18.1451  18.1451  18.2372  18.2372  18.3645  18.3645
    19.2730  19.2730  19.6869  19.6869  19.8559  19.8559  19.9196  19.9196
    20.7058  20.7058  20.8618  20.8618  21.3600  21.3600  21.6103  21.6103
    21.6680  21.6680  22.4282  22.4282  22.6624  22.6624  22.7012  22.7012
    22.8714  22.8714  23.0405  23.0405  23.8277  23.8277  25.0898  25.0898
    25.6084  25.6084  25.7867  25.7867  26.0211  26.0211  26.1439  26.1439
    26.5575  26.5575  27.3521  27.3521  27.8324  27.8324  28.2630  28.2630
    28.6123  28.6123  29.5738  29.5738  29.6078  29.6078  29.8030  29.8030
    30.1168  30.1168  30.7226  30.7226  31.2144  31.2144

     occupation numbers 
     1.0000   1.0000   1.0000   1.0000   1.0000   1.0000   1.0000   1.0000
     0.0000   0.0000   0.0000   0.0000   0.0000   0.0000   0.0000   0.0000
     0.0000   0.0000   0.0000   0.0000   0.0000   0.0000   0.0000   0.0000
     0.0000   0.0000   0.0000   0.0000   0.0000   0.0000   0.0000   0.0000
     0.0000   0.0000   0.0000   0.0000   0.0000   0.0000   0.0000   0.0000
     0.0000   0.0000   0.0000   0.0000   0.0000   0.0000   0.0000   0.0000
     0.0000   0.0000   0.0000   0.0000   0.0000   0.0000   0.0000   0.0000
     0.0000   0.0000   0.0000   0.0000   0.0000   0.0000   0.0000   0.0000
     0.0000   0.0000   0.0000   0.0000   0.0000   0.0000   0.0000   0.0000
     0.0000   0.0000   0.0000   0.0000   0.0000   0.0000   0.0000   0.0000
     0.0000   0.0000   0.0000   0.0000   0.0000   0.0000   0.0000   0.0000
     0.0000   0.0000   0.0000   0.0000   0.0000   0.0000   0.0000   0.0000
     0.0000   0.0000   0.0000   0.0000   0.0000   0.0000   0.0000   0.0000
     0.0000   0.0000   0.0000   0.0000   0.0000   0.0000   0.0000   0.0000
     0.0000   0.0000   0.0000   0.0000   0.0000   0.0000   0.0000   0.0000
     0.0000   0.0000   0.0000   0.0000   0.0000   0.0000   0.0000   0.0000
     0.0000   0.0000   0.0000   0.0000   0.0000   0.0000   0.0000   0.0000
     0.0000   0.0000   0.0000   0.0000   0.0000   0.0000   0.0000   0.0000
     0.0000   0.0000   0.0000   0.0000   0.0000   0.0000

          k = 0.0000-0.5789 0.0000 ( 12422 PWs)   bands (ev):

   -16.2058 -16.2058  -8.7539  -8.7539  -5.3699  -5.3699  -4.2153  -4.2153
     1.3920   1.3920   2.2303   2.2303   4.3992   4.3992   5.6122   5.6122
     5.9601   5.9601   6.5450   6.5450   6.5809   6.5809   6.6939   6.6939
     7.0585   7.0585   7.2160   7.2160   7.6805   7.6805   7.8647   7.8647
     8.3759   8.3759   8.7019   8.7019   9.5956   9.5956   9.7318   9.7318
    10.2047  10.2047  10.6750  10.6750  10.7963  10.7963  12.1496  12.1496
    12.2637  12.2637  12.3524  12.3524  12.5411  12.5411  13.3765  13.3765
    14.8297  14.8297  15.2810  15.2810  15.6586  15.6586  15.9940  15.9940
    16.3838  16.3838  16.4108  16.4108  16.5752  16.5752  16.7504  16.7504
    16.9124  16.9124  16.9954  16.9954  17.4502  17.4502  17.8423  17.8423
    17.9124  17.9124  18.2069  18.2069  18.5142  18.5142  19.1877  19.1877
    19.5628  19.5628  19.5804  19.5804  19.7176  19.7176  19.8683  19.8683
    19.9190  19.9190  20.1471  20.1471  20.6959  20.6959  21.0056  21.0056
    21.2671  21.2671  22.2959  22.2959  22.5576  22.5576  22.7101  22.7101
    23.2104  23.2104  23.7645  23.7645  24.1792  24.1792  24.5048  24.5048
    24.7026  24.7026  25.5098  25.5098  25.5923  25.5923  25.8171  25.8171
    26.6916  26.6916  28.0315  28.0315  28.8722  28.8722  29.2460  29.2460
    29.3107  29.3107  29.4144  29.4144  29.4162  29.4162  29.9682  29.9682
    30.3220  30.3220  30.7761  30.7761  31.1747  31.1747

     occupation numbers 
     1.0000   1.0000   1.0000   1.0000   1.0000   1.0000   1.0000   1.0000
     0.0000   0.0000   0.0000   0.0000   0.0000   0.0000   0.0000   0.0000
     0.0000   0.0000   0.0000   0.0000   0.0000   0.0000   0.0000   0.0000
     0.0000   0.0000   0.0000   0.0000   0.0000   0.0000   0.0000   0.0000
     0.0000   0.0000   0.0000   0.0000   0.0000   0.0000   0.0000   0.0000
     0.0000   0.0000   0.0000   0.0000   0.0000   0.0000   0.0000   0.0000
     0.0000   0.0000   0.0000   0.0000   0.0000   0.0000   0.0000   0.0000
     0.0000   0.0000   0.0000   0.0000   0.0000   0.0000   0.0000   0.0000
     0.0000   0.0000   0.0000   0.0000   0.0000   0.0000   0.0000   0.0000
     0.0000   0.0000   0.0000   0.0000   0.0000   0.0000   0.0000   0.0000
     0.0000   0.0000   0.0000   0.0000   0.0000   0.0000   0.0000   0.0000
     0.0000   0.0000   0.0000   0.0000   0.0000   0.0000   0.0000   0.0000
     0.0000   0.0000   0.0000   0.0000   0.0000   0.0000   0.0000   0.0000
     0.0000   0.0000   0.0000   0.0000   0.0000   0.0000   0.0000   0.0000
     0.0000   0.0000   0.0000   0.0000   0.0000   0.0000   0.0000   0.0000
     0.0000   0.0000   0.0000   0.0000   0.0000   0.0000   0.0000   0.0000
     0.0000   0.0000   0.0000   0.0000   0.0000   0.0000   0.0000   0.0000
     0.0000   0.0000   0.0000   0.0000   0.0000   0.0000   0.0000   0.0000
     0.0000   0.0000   0.0000   0.0000   0.0000   0.0000

          k = 0.0836 0.1447 0.0000 ( 12368 PWs)   bands (ev):

   -17.3719 -17.3718  -5.9029  -5.9029  -5.6142  -5.6107  -4.8177  -4.8129
    -0.3268  -0.3265   1.2852   1.2852   1.8422   1.8422   2.4712   2.4712
     2.5068   2.5070   3.8477   3.8477   3.9139   3.9143   5.6687   5.6687
     5.7441   5.7455   6.7141   6.7152   8.0394   8.0395   8.2229   8.2249
     8.7995   8.7998  10.8554  10.8554  11.1571  11.1572  11.9668  11.9670
    13.1206  13.1208  14.3299  14.3300  15.2423  15.2423  15.4620  15.4637
    16.2141  16.2158  16.5583  16.5583  16.8862  16.8868  17.1551  17.1552
    17.3271  17.3272  17.4053  17.4054  17.5055  17.5055  18.1693  18.1693
    18.3178  18.3181  18.3777  18.3777  18.5234  18.5235  19.0297  19.0297
    19.6908  19.6911  19.9658  19.9659  20.0409  20.0409  20.0602  20.0612
    20.1545  20.1549  20.5887  20.5887  21.2747  21.2749  21.5806  21.5818
    21.9610  21.9611  22.1915  22.1915  22.3740  22.3750  22.3941  22.3948
    22.4882  22.4882  22.4913  22.4913  22.9304  22.9305  23.0222  23.0222
    23.1430  23.1430  23.3389  23.3389  23.5698  23.5700  23.5857  23.5857
    23.6757  23.6758  24.3733  24.3749  24.5381  24.5381  24.7169  24.7179
    25.0148  25.0148  25.2232  25.2233  25.4393  25.4393  25.5305  25.5309
    25.8305  25.8306  26.2900  26.2901  26.3198  26.3200  26.3532  26.3538
    26.6241  26.6268  27.1311  27.1311  27.3375  27.3392  27.4740  27.4742
    27.5404  27.5404  27.6367  27.6367  27.7168  27.7180

     occupation numbers 
     1.0000   1.0000   1.0000   1.0000   1.0000   1.0000   1.0000   1.0000
     0.0000   0.0000   0.0000   0.0000   0.0000   0.0000   0.0000   0.0000
     0.0000   0.0000   0.0000   0.0000   0.0000   0.0000   0.0000   0.0000
     0.0000   0.0000   0.0000   0.0000   0.0000   0.0000   0.0000   0.0000
     0.0000   0.0000   0.0000   0.0000   0.0000   0.0000   0.0000   0.0000
     0.0000   0.0000   0.0000   0.0000   0.0000   0.0000   0.0000   0.0000
     0.0000   0.0000   0.0000   0.0000   0.0000   0.0000   0.0000   0.0000
     0.0000   0.0000   0.0000   0.0000   0.0000   0.0000   0.0000   0.0000
     0.0000   0.0000   0.0000   0.0000   0.0000   0.0000   0.0000   0.0000
     0.0000   0.0000   0.0000   0.0000   0.0000   0.0000   0.0000   0.0000
     0.0000   0.0000   0.0000   0.0000   0.0000   0.0000   0.0000   0.0000
     0.0000   0.0000   0.0000   0.0000   0.0000   0.0000   0.0000   0.0000
     0.0000   0.0000   0.0000   0.0000   0.0000   0.0000   0.0000   0.0000
     0.0000   0.0000   0.0000   0.0000   0.0000   0.0000   0.0000   0.0000
     0.0000   0.0000   0.0000   0.0000   0.0000   0.0000   0.0000   0.0000
     0.0000   0.0000   0.0000   0.0000   0.0000   0.0000   0.0000   0.0000
     0.0000   0.0000   0.0000   0.0000   0.0000   0.0000   0.0000   0.0000
     0.0000   0.0000   0.0000   0.0000   0.0000   0.0000   0.0000   0.0000
     0.0000   0.0000   0.0000   0.0000   0.0000   0.0000

          k = 0.0836 0.2412 0.0000 ( 12356 PWs)   bands (ev):

   -17.1055 -17.1051  -6.4964  -6.4938  -5.5488  -5.5488  -5.0511  -5.0456
     0.3424   0.3427   1.6402   1.6402   2.4203   2.4204   2.9214   2.9214
     3.1072   3.1074   4.1455   4.1455   4.5103   4.5110   5.7182   5.7217
     5.9065   5.9066   6.5610   6.5616   8.2295   8.2295   8.7930   8.7930
     9.6134   9.6136  10.0235  10.0236  11.3265  11.3265  11.7742  11.7743
    12.8144  12.8145  13.5300  13.5303  14.4193  14.4194  14.4942  14.4943
    14.9874  14.9876  15.3675  15.3679  15.3753  15.3754  15.6676  15.6678
    15.6945  15.6946  15.9753  15.9753  16.1982  16.1982  16.8623  16.8623
    17.0722  17.0726  17.3296  17.3296  17.4317  17.4327  17.8917  17.8917
    17.9257  17.9274  19.1030  19.1037  19.1385  19.1385  19.5967  19.5967
    19.7190  19.7193  20.2114  20.2114  20.2404  20.2413  20.8345  20.8346
    21.0200  21.0200  21.3072  21.3073  21.4687  21.4687  21.5924  21.5930
    21.9831  21.9831  22.3803  22.3812  22.5818  22.5819  22.8721  22.8724
    23.2057  23.2057  23.5136  23.5161  24.0735  24.0737  24.1479  24.1479
    24.5682  24.5682  24.6181  24.6182  24.7408  24.7415  24.7512  24.7512
    25.1001  25.1008  25.2306  25.2306  25.6235  25.6242  25.6593  25.6593
    26.0634  26.0640  26.2334  26.2334  26.3036  26.3041  26.7083  26.7083
    27.3490  27.3496  27.3612  27.3612  27.6460  27.6460  27.8774  27.8779
    28.3338  28.3342  28.6040  28.6040  28.8111  28.8117

     occupation numbers 
     1.0000   1.0000   1.0000   1.0000   1.0000   1.0000   1.0000   1.0000
     0.0000   0.0000   0.0000   0.0000   0.0000   0.0000   0.0000   0.0000
     0.0000   0.0000   0.0000   0.0000   0.0000   0.0000   0.0000   0.0000
     0.0000   0.0000   0.0000   0.0000   0.0000   0.0000   0.0000   0.0000
     0.0000   0.0000   0.0000   0.0000   0.0000   0.0000   0.0000   0.0000
     0.0000   0.0000   0.0000   0.0000   0.0000   0.0000   0.0000   0.0000
     0.0000   0.0000   0.0000   0.0000   0.0000   0.0000   0.0000   0.0000
     0.0000   0.0000   0.0000   0.0000   0.0000   0.0000   0.0000   0.0000
     0.0000   0.0000   0.0000   0.0000   0.0000   0.0000   0.0000   0.0000
     0.0000   0.0000   0.0000   0.0000   0.0000   0.0000   0.0000   0.0000
     0.0000   0.0000   0.0000   0.0000   0.0000   0.0000   0.0000   0.0000
     0.0000   0.0000   0.0000   0.0000   0.0000   0.0000   0.0000   0.0000
     0.0000   0.0000   0.0000   0.0000   0.0000   0.0000   0.0000   0.0000
     0.0000   0.0000   0.0000   0.0000   0.0000   0.0000   0.0000   0.0000
     0.0000   0.0000   0.0000   0.0000   0.0000   0.0000   0.0000   0.0000
     0.0000   0.0000   0.0000   0.0000   0.0000   0.0000   0.0000   0.0000
     0.0000   0.0000   0.0000   0.0000   0.0000   0.0000   0.0000   0.0000
     0.0000   0.0000   0.0000   0.0000   0.0000   0.0000   0.0000   0.0000
     0.0000   0.0000   0.0000   0.0000   0.0000   0.0000

          k = 0.0836 0.3377 0.0000 ( 12362 PWs)   bands (ev):

   -16.7637 -16.7630  -7.4139  -7.4129  -5.3040  -5.2992  -5.0738  -5.0737
     1.1495   1.1497   1.9030   1.9030   3.2635   3.2635   3.5531   3.5531
     3.8810   3.8814   4.6195   4.6195   4.8645   4.8665   5.6623   5.6632
     6.3476   6.3476   7.3709   7.3713   8.1866   8.1866   9.4265   9.4266
     9.5916   9.5924  10.3388  10.3405  11.2111  11.2111  11.3490  11.3493
    11.9424  11.9424  11.9615  11.9615  12.6518  12.6518  12.7552  12.7552
    13.2996  13.2998  13.3184  13.3184  14.4334  14.4338  14.8492  14.8492
    15.0496  15.0497  15.1281  15.1281  15.3655  15.3656  15.9525  15.9525
    16.3098  16.3102  16.3927  16.3927  16.5300  16.5301  17.3158  17.3159
    17.4755  17.4755  17.8933  17.8933  18.2507  18.2507  18.6304  18.6325
    18.8922  18.8923  20.0907  20.0908  20.3349  20.3349  20.4254  20.4261
    20.5075  20.5083  20.6635  20.6635  20.8393  20.8393  20.9291  20.9291
    21.2233  21.2233  21.3117  21.3139  21.6477  21.6477  22.0263  22.0276
    22.9301  22.9332  23.0225  23.0225  23.3356  23.3362  23.6643  23.6643
    24.1749  24.1760  24.3468  24.3468  24.9646  24.9679  25.1014  25.1014
    25.7424  25.7439  25.9288  25.9288  26.1123  26.1137  26.3701  26.3701
    26.5048  26.5052  27.0890  27.0892  27.1471  27.1471  27.4027  27.4032
    27.7382  27.7382  28.2880  28.2881  28.3565  28.3573  28.6217  28.6217
    28.6389  28.6395  29.2957  29.2957  29.5146  29.5151

     occupation numbers 
     1.0000   1.0000   1.0000   1.0000   1.0000   1.0000   1.0000   1.0000
     0.0000   0.0000   0.0000   0.0000   0.0000   0.0000   0.0000   0.0000
     0.0000   0.0000   0.0000   0.0000   0.0000   0.0000   0.0000   0.0000
     0.0000   0.0000   0.0000   0.0000   0.0000   0.0000   0.0000   0.0000
     0.0000   0.0000   0.0000   0.0000   0.0000   0.0000   0.0000   0.0000
     0.0000   0.0000   0.0000   0.0000   0.0000   0.0000   0.0000   0.0000
     0.0000   0.0000   0.0000   0.0000   0.0000   0.0000   0.0000   0.0000
     0.0000   0.0000   0.0000   0.0000   0.0000   0.0000   0.0000   0.0000
     0.0000   0.0000   0.0000   0.0000   0.0000   0.0000   0.0000   0.0000
     0.0000   0.0000   0.0000   0.0000   0.0000   0.0000   0.0000   0.0000
     0.0000   0.0000   0.0000   0.0000   0.0000   0.0000   0.0000   0.0000
     0.0000   0.0000   0.0000   0.0000   0.0000   0.0000   0.0000   0.0000
     0.0000   0.0000   0.0000   0.0000   0.0000   0.0000   0.0000   0.0000
     0.0000   0.0000   0.0000   0.0000   0.0000   0.0000   0.0000   0.0000
     0.0000   0.0000   0.0000   0.0000   0.0000   0.0000   0.0000   0.0000
     0.0000   0.0000   0.0000   0.0000   0.0000   0.0000   0.0000   0.0000
     0.0000   0.0000   0.0000   0.0000   0.0000   0.0000   0.0000   0.0000
     0.0000   0.0000   0.0000   0.0000   0.0000   0.0000   0.0000   0.0000
     0.0000   0.0000   0.0000   0.0000   0.0000   0.0000

          k = 0.0836 0.4342 0.0000 ( 12386 PWs)   bands (ev):

   -16.4285 -16.4273  -8.1786  -8.1781  -5.5088  -5.5048  -4.5757  -4.5756
     1.7842   1.7842   1.9636   1.9637   4.1098   4.1109   4.4280   4.4280
     4.5258   4.5262   5.2867   5.2872   5.4166   5.4166   6.5378   6.5382
     6.8270   6.8270   8.0505   8.0505   8.1045   8.1048   9.1836   9.1837
     9.5478   9.5479   9.6945   9.6945  10.0002  10.0002  10.5598  10.5599
    10.5983  10.5983  11.0593  11.0630  11.5605  11.5626  11.5971  11.5971
    12.7716  12.7717  12.9138  12.9141  13.7685  13.7686  13.8444  13.8446
    14.2662  14.2669  14.5481  14.5481  14.8371  14.8373  15.1874  15.1874
    15.5117  15.5119  15.6488  15.6488  16.0013  16.0017  16.7820  16.7821
    17.4801  17.4807  17.6347  17.6347  17.8573  17.8578  18.2232  18.2239
    18.3294  18.3294  18.8873  18.8876  19.2480  19.2480  19.8596  19.8599
    19.8786  19.8786  20.1017  20.1026  20.5697  20.5698  20.5867  20.5891
    21.2297  21.2297  21.3614  21.3637  21.7376  21.7380  22.1450  22.1464
    22.3107  22.3107  22.4780  22.4780  22.7991  22.8023  22.9403  22.9403
    23.2540  23.2565  23.8811  23.8812  24.0288  24.0298  25.1264  25.1269
    25.2338  25.2338  26.0310  26.0310  26.0465  26.0469  27.1047  27.1047
    27.2167  27.2175  27.4529  27.4530  27.7895  27.7906  27.9917  27.9918
    27.9949  27.9953  28.8903  28.8919  29.0161  29.0162  29.5597  29.5610
    30.0044  30.0044  30.1926  30.1927  30.6361  30.6361

     occupation numbers 
     1.0000   1.0000   1.0000   1.0000   1.0000   1.0000   1.0000   1.0000
     0.0000   0.0000   0.0000   0.0000   0.0000   0.0000   0.0000   0.0000
     0.0000   0.0000   0.0000   0.0000   0.0000   0.0000   0.0000   0.0000
     0.0000   0.0000   0.0000   0.0000   0.0000   0.0000   0.0000   0.0000
     0.0000   0.0000   0.0000   0.0000   0.0000   0.0000   0.0000   0.0000
     0.0000   0.0000   0.0000   0.0000   0.0000   0.0000   0.0000   0.0000
     0.0000   0.0000   0.0000   0.0000   0.0000   0.0000   0.0000   0.0000
     0.0000   0.0000   0.0000   0.0000   0.0000   0.0000   0.0000   0.0000
     0.0000   0.0000   0.0000   0.0000   0.0000   0.0000   0.0000   0.0000
     0.0000   0.0000   0.0000   0.0000   0.0000   0.0000   0.0000   0.0000
     0.0000   0.0000   0.0000   0.0000   0.0000   0.0000   0.0000   0.0000
     0.0000   0.0000   0.0000   0.0000   0.0000   0.0000   0.0000   0.0000
     0.0000   0.0000   0.0000   0.0000   0.0000   0.0000   0.0000   0.0000
     0.0000   0.0000   0.0000   0.0000   0.0000   0.0000   0.0000   0.0000
     0.0000   0.0000   0.0000   0.0000   0.0000   0.0000   0.0000   0.0000
     0.0000   0.0000   0.0000   0.0000   0.0000   0.0000   0.0000   0.0000
     0.0000   0.0000   0.0000   0.0000   0.0000   0.0000   0.0000   0.0000
     0.0000   0.0000   0.0000   0.0000   0.0000   0.0000   0.0000   0.0000
     0.0000   0.0000   0.0000   0.0000   0.0000   0.0000

          k = 0.0836 0.5307 0.0000 ( 12414 PWs)   bands (ev):

   -16.2127 -16.2112  -8.6219  -8.6205  -5.6216  -5.6181  -4.2303  -4.2303
     1.5153   1.5153   2.4665   2.4669   4.3789   4.3801   5.4008   5.4008
     5.7795   5.7797   6.2021   6.2024   6.3264   6.3264   7.0578   7.0579
     7.2129   7.2129   7.5999   7.5999   7.8113   7.8113   8.0755   8.0755
     8.6948   8.6948   8.9035   8.9036   9.0690   9.0690   9.8325   9.8327
    10.2854  10.2854  10.9514  10.9516  11.0877  11.0877  11.7844  11.7907
    12.1660  12.1660  12.2485  12.2494  13.4566  13.4566  13.7366  13.7369
    14.0943  14.0951  14.2577  14.2577  14.5988  14.5990  14.8393  14.8393
    15.2799  15.2801  15.3772  15.3772  15.8585  15.8588  16.3172  16.3172
    16.8239  16.8244  17.1583  17.1584  17.6342  17.6353  18.1703  18.1703
    18.2454  18.2480  19.0365  19.0370  19.3017  19.3017  19.5689  19.5693
    19.6332  19.6332  19.9614  19.9644  20.1408  20.1426  20.2544  20.2544
    20.6047  20.6047  20.8134  20.8134  21.0398  21.0417  21.5665  21.5688
    21.5700  21.5701  22.6252  22.6252  22.8048  22.8078  23.2718  23.2736
    23.4109  23.4109  23.6106  23.6115  24.1109  24.1109  24.9184  24.9200
    25.0171  25.0171  25.3549  25.3552  25.5682  25.5683  26.9725  26.9730
    27.2173  27.2174  27.7382  27.7392  28.1403  28.1404  28.5800  28.5800
    28.5866  28.5867  29.2523  29.2524  29.7153  29.7162  30.3490  30.3490
    30.4171  30.4182  31.0872  31.0883  31.5044  31.5048

     occupation numbers 
     1.0000   1.0000   1.0000   1.0000   1.0000   1.0000   1.0000   1.0000
     0.0000   0.0000   0.0000   0.0000   0.0000   0.0000   0.0000   0.0000
     0.0000   0.0000   0.0000   0.0000   0.0000   0.0000   0.0000   0.0000
     0.0000   0.0000   0.0000   0.0000   0.0000   0.0000   0.0000   0.0000
     0.0000   0.0000   0.0000   0.0000   0.0000   0.0000   0.0000   0.0000
     0.0000   0.0000   0.0000   0.0000   0.0000   0.0000   0.0000   0.0000
     0.0000   0.0000   0.0000   0.0000   0.0000   0.0000   0.0000   0.0000
     0.0000   0.0000   0.0000   0.0000   0.0000   0.0000   0.0000   0.0000
     0.0000   0.0000   0.0000   0.0000   0.0000   0.0000   0.0000   0.0000
     0.0000   0.0000   0.0000   0.0000   0.0000   0.0000   0.0000   0.0000
     0.0000   0.0000   0.0000   0.0000   0.0000   0.0000   0.0000   0.0000
     0.0000   0.0000   0.0000   0.0000   0.0000   0.0000   0.0000   0.0000
     0.0000   0.0000   0.0000   0.0000   0.0000   0.0000   0.0000   0.0000
     0.0000   0.0000   0.0000   0.0000   0.0000   0.0000   0.0000   0.0000
     0.0000   0.0000   0.0000   0.0000   0.0000   0.0000   0.0000   0.0000
     0.0000   0.0000   0.0000   0.0000   0.0000   0.0000   0.0000   0.0000
     0.0000   0.0000   0.0000   0.0000   0.0000   0.0000   0.0000   0.0000
     0.0000   0.0000   0.0000   0.0000   0.0000   0.0000   0.0000   0.0000
     0.0000   0.0000   0.0000   0.0000   0.0000   0.0000

          k = 0.1671 0.2895 0.0000 ( 12372 PWs)   bands (ev):

   -16.8138 -16.8128  -7.1775  -7.1751  -5.4551  -5.4476  -5.1457  -5.1457
     1.0815   1.0816   1.9064   1.9064   3.1358   3.1359   3.4592   3.4592
     3.8324   3.8326   4.5556   4.5556   5.2402   5.2446   5.3065   5.3070
     6.3149   6.3149   7.1556   7.1561   8.2034   8.2035   9.0335   9.0336
     9.4381   9.4396  10.1355  10.1368  11.2344  11.2344  12.2162  12.2169
    12.7744  12.7752  12.9064  12.9064  13.0454  13.0455  13.4174  13.4174
    13.5406  13.5407  13.5504  13.5504  13.7267  13.7267  14.5002  14.5002
    14.6482  14.6484  14.6573  14.6574  14.7399  14.7402  16.1389  16.1393
    16.2922  16.2922  16.3070  16.3070  16.4724  16.4732  16.6096  16.6097
    16.6833  16.6839  18.1124  18.1125  18.6989  18.6993  18.8538  18.8538
    19.1019  19.1037  19.2776  19.2824  19.2928  19.2932  20.4510  20.4510
    20.9599  20.9627  21.6067  21.6075  21.7320  21.7320  22.0174  22.0188
    22.3382  22.3382  22.7091  22.7097  23.1106  23.1106  23.2290  23.2308
    23.6719  23.6720  23.7099  23.7114  23.7709  23.7715  24.0468  24.0468
    24.0783  24.0790  24.5341  24.5352  24.7101  24.7101  24.9038  24.9046
    24.9772  24.9772  25.5326  25.5329  25.8291  25.8291  26.0374  26.0379
    26.1974  26.1974  26.3254  26.3254  26.7790  26.7790  26.8113  26.8114
    26.8235  26.8254  27.0458  27.0458  27.2789  27.2800  27.6133  27.6141
    28.6943  28.6943  28.9493  28.9494  29.3352  29.3361

     occupation numbers 
     1.0000   1.0000   1.0000   1.0000   1.0000   1.0000   1.0000   1.0000
     0.0000   0.0000   0.0000   0.0000   0.0000   0.0000   0.0000   0.0000
     0.0000   0.0000   0.0000   0.0000   0.0000   0.0000   0.0000   0.0000
     0.0000   0.0000   0.0000   0.0000   0.0000   0.0000   0.0000   0.0000
     0.0000   0.0000   0.0000   0.0000   0.0000   0.0000   0.0000   0.0000
     0.0000   0.0000   0.0000   0.0000   0.0000   0.0000   0.0000   0.0000
     0.0000   0.0000   0.0000   0.0000   0.0000   0.0000   0.0000   0.0000
     0.0000   0.0000   0.0000   0.0000   0.0000   0.0000   0.0000   0.0000
     0.0000   0.0000   0.0000   0.0000   0.0000   0.0000   0.0000   0.0000
     0.0000   0.0000   0.0000   0.0000   0.0000   0.0000   0.0000   0.0000
     0.0000   0.0000   0.0000   0.0000   0.0000   0.0000   0.0000   0.0000
     0.0000   0.0000   0.0000   0.0000   0.0000   0.0000   0.0000   0.0000
     0.0000   0.0000   0.0000   0.0000   0.0000   0.0000   0.0000   0.0000
     0.0000   0.0000   0.0000   0.0000   0.0000   0.0000   0.0000   0.0000
     0.0000   0.0000   0.0000   0.0000   0.0000   0.0000   0.0000   0.0000
     0.0000   0.0000   0.0000   0.0000   0.0000   0.0000   0.0000   0.0000
     0.0000   0.0000   0.0000   0.0000   0.0000   0.0000   0.0000   0.0000
     0.0000   0.0000   0.0000   0.0000   0.0000   0.0000   0.0000   0.0000
     0.0000   0.0000   0.0000   0.0000   0.0000   0.0000

          k = 0.1671 0.3859 0.0000 ( 12369 PWs)   bands (ev):

   -16.4897 -16.4878  -7.8144  -7.8142  -5.8755  -5.8683  -4.6726  -4.6726
     1.9530   1.9532   1.9738   1.9743   4.1131   4.1131   4.2405   4.2405
     4.6510   4.6516   5.0566   5.0597   5.2586   5.2586   6.2335   6.2344
     6.6977   6.6977   7.5123   7.5123   8.0510   8.0518   9.4828   9.4828
     9.6575   9.6588  10.3949  10.3987  10.7712  10.7712  10.9022  10.9027
    11.3076  11.3080  11.5100  11.5101  12.2950  12.2951  12.3006  12.3006
    12.5480  12.5495  12.7795  12.7795  12.8702  12.8708  13.5092  13.5094
    13.6029  13.6029  13.8934  13.8934  14.1500  14.1502  14.5150  14.5151
    14.5525  14.5526  15.6952  15.6952  15.9474  15.9476  16.6411  16.6412
    16.7370  16.7370  17.3199  17.3200  17.3900  17.3904  17.9975  17.9976
    18.4080  18.4084  19.4273  19.4273  19.6501  19.6521  19.9291  19.9291
    20.2301  20.2375  21.0725  21.0730  21.3732  21.3732  21.8157  21.8165
    21.8886  21.8886  22.1106  22.1113  22.7692  22.7692  22.8966  22.8969
    23.2683  23.2687  23.3642  23.3642  23.7196  23.7231  24.0404  24.0404
    24.3339  24.3341  24.7751  24.7751  25.2111  25.2137  25.6428  25.6428
    25.6712  25.6716  26.2728  26.2728  26.3265  26.3267  26.4454  26.4466
    26.5832  26.5832  26.5919  26.5922  27.2443  27.2443  27.2762  27.2766
    27.6436  27.6436  27.8045  27.8049  28.4425  28.4425  28.6902  28.6907
    28.7776  28.7776  29.0339  29.0350  29.4869  29.4869

     occupation numbers 
     1.0000   1.0000   1.0000   1.0000   1.0000   1.0000   1.0000   1.0000
     0.0000   0.0000   0.0000   0.0000   0.0000   0.0000   0.0000   0.0000
     0.0000   0.0000   0.0000   0.0000   0.0000   0.0000   0.0000   0.0000
     0.0000   0.0000   0.0000   0.0000   0.0000   0.0000   0.0000   0.0000
     0.0000   0.0000   0.0000   0.0000   0.0000   0.0000   0.0000   0.0000
     0.0000   0.0000   0.0000   0.0000   0.0000   0.0000   0.0000   0.0000
     0.0000   0.0000   0.0000   0.0000   0.0000   0.0000   0.0000   0.0000
     0.0000   0.0000   0.0000   0.0000   0.0000   0.0000   0.0000   0.0000
     0.0000   0.0000   0.0000   0.0000   0.0000   0.0000   0.0000   0.0000
     0.0000   0.0000   0.0000   0.0000   0.0000   0.0000   0.0000   0.0000
     0.0000   0.0000   0.0000   0.0000   0.0000   0.0000   0.0000   0.0000
     0.0000   0.0000   0.0000   0.0000   0.0000   0.0000   0.0000   0.0000
     0.0000   0.0000   0.0000   0.0000   0.0000   0.0000   0.0000   0.0000
     0.0000   0.0000   0.0000   0.0000   0.0000   0.0000   0.0000   0.0000
     0.0000   0.0000   0.0000   0.0000   0.0000   0.0000   0.0000   0.0000
     0.0000   0.0000   0.0000   0.0000   0.0000   0.0000   0.0000   0.0000
     0.0000   0.0000   0.0000   0.0000   0.0000   0.0000   0.0000   0.0000
     0.0000   0.0000   0.0000   0.0000   0.0000   0.0000   0.0000   0.0000
     0.0000   0.0000   0.0000   0.0000   0.0000   0.0000

          k = 0.1671 0.4824 0.0000 ( 12392 PWs)   bands (ev):

   -16.2255 -16.2229  -8.2867  -8.2847  -6.1719  -6.1658  -4.2596  -4.2595
     1.7897   1.7897   2.8360   2.8368   4.5844   4.5869   5.1589   5.1589
     5.4147   5.4150   5.9374   5.9374   6.0147   6.0154   6.7479   6.7479
     7.1924   7.1928   8.2244   8.2245   8.2855   8.2855   8.8239   8.8239
     8.9002   8.9002   9.3831   9.3832   9.7200   9.7200  10.0274  10.0297
    10.5435  10.5435  10.7920  10.7948  11.6012  11.6014  11.6117  11.6135
    12.1253  12.1268  12.1928  12.1928  12.4498  12.4499  12.7906  12.7906
    12.8352  12.8379  13.4959  13.4959  13.8550  13.8571  14.5020  14.5020
    14.5113  14.5116  15.1204  15.1204  15.2140  15.2143  15.3973  15.3974
    15.7789  15.7795  17.4106  17.4106  17.8544  17.8550  17.8956  17.8956
    18.0810  18.0811  18.4175  18.4175  18.6680  18.6690  19.9863  19.9932
    19.9953  19.9963  20.8569  20.8577  21.5049  21.5049  21.6134  21.6156
    21.8334  21.8335  21.8823  21.8831  22.4560  22.4565  22.6216  22.6216
    22.8013  22.8014  23.1726  23.1726  23.2949  23.2961  23.6543  23.6543
    23.9448  23.9462  24.7964  24.7964  25.0145  25.0154  25.3193  25.3193
    25.5738  25.5750  26.0135  26.0135  26.1622  26.1625  27.2770  27.2788
    27.2803  27.2807  28.0737  28.0737  28.1088  28.1088  28.3040  28.3053
    28.5301  28.5301  29.2674  29.2678  29.3935  29.3935  29.4314  29.4322
    29.6591  29.6592  29.8815  29.8815  30.4609  30.4609

     occupation numbers 
     1.0000   1.0000   1.0000   1.0000   1.0000   1.0000   1.0000   1.0000
     0.0000   0.0000   0.0000   0.0000   0.0000   0.0000   0.0000   0.0000
     0.0000   0.0000   0.0000   0.0000   0.0000   0.0000   0.0000   0.0000
     0.0000   0.0000   0.0000   0.0000   0.0000   0.0000   0.0000   0.0000
     0.0000   0.0000   0.0000   0.0000   0.0000   0.0000   0.0000   0.0000
     0.0000   0.0000   0.0000   0.0000   0.0000   0.0000   0.0000   0.0000
     0.0000   0.0000   0.0000   0.0000   0.0000   0.0000   0.0000   0.0000
     0.0000   0.0000   0.0000   0.0000   0.0000   0.0000   0.0000   0.0000
     0.0000   0.0000   0.0000   0.0000   0.0000   0.0000   0.0000   0.0000
     0.0000   0.0000   0.0000   0.0000   0.0000   0.0000   0.0000   0.0000
     0.0000   0.0000   0.0000   0.0000   0.0000   0.0000   0.0000   0.0000
     0.0000   0.0000   0.0000   0.0000   0.0000   0.0000   0.0000   0.0000
     0.0000   0.0000   0.0000   0.0000   0.0000   0.0000   0.0000   0.0000
     0.0000   0.0000   0.0000   0.0000   0.0000   0.0000   0.0000   0.0000
     0.0000   0.0000   0.0000   0.0000   0.0000   0.0000   0.0000   0.0000
     0.0000   0.0000   0.0000   0.0000   0.0000   0.0000   0.0000   0.0000
     0.0000   0.0000   0.0000   0.0000   0.0000   0.0000   0.0000   0.0000
     0.0000   0.0000   0.0000   0.0000   0.0000   0.0000   0.0000   0.0000
     0.0000   0.0000   0.0000   0.0000   0.0000   0.0000

          k = 0.1671 0.5789 0.0000 ( 12420 PWs)   bands (ev):

   -16.1218 -16.1188  -8.4641  -8.4612  -6.2767  -6.2711  -4.0881  -4.0881
     1.6817   1.6817   3.2207   3.2217   4.6462   4.6491   5.3381   5.3382
     6.4114   6.4119   6.9275   6.9275   6.9463   6.9463   7.1177   7.1178
     7.1482   7.1482   7.5511   7.5511   7.9183   7.9183   8.1897   8.1898
     8.2455   8.2455   8.9920   8.9923   9.4575   9.4575   9.8856   9.8867
    10.0849  10.0849  10.7170  10.7205  11.1083  11.1094  11.3199  11.3200
    12.0827  12.0841  12.2050  12.2050  12.5657  12.5677  12.7166  12.7166
    12.8798  12.8838  13.1709  13.1709  13.5499  13.5508  13.8705  13.8725
    13.9019  13.9020  15.1417  15.1417  15.5842  15.5862  15.9538  15.9538
    15.9928  15.9929  16.4201  16.4202  16.6526  16.6535  17.4706  17.4707
    18.0630  18.0639  19.1097  19.1097  19.2668  19.2740  19.9474  19.9487
    20.0292  20.0292  20.6385  20.6385  20.7906  20.7910  20.9124  20.9127
    21.6897  21.6962  21.7627  21.7628  22.2655  22.2666  22.6329  22.6335
    22.6353  22.6354  23.5613  23.5613  23.6916  23.6930  24.1494  24.1496
    24.4198  24.4199  24.6580  24.6580  24.7066  24.7074  24.9949  24.9950
    25.3336  25.3370  25.4278  25.4282  25.7782  25.7783  27.1928  27.1930
    27.3236  27.3240  28.0022  28.0022  28.5773  28.5774  28.6802  28.6805
    29.0780  29.0784  29.7113  29.7113  29.7462  29.7471  30.0936  30.0936
    30.3360  30.3369  30.5228  30.5230  30.9455  30.9456

     occupation numbers 
     1.0000   1.0000   1.0000   1.0000   1.0000   1.0000   1.0000   1.0000
     0.0000   0.0000   0.0000   0.0000   0.0000   0.0000   0.0000   0.0000
     0.0000   0.0000   0.0000   0.0000   0.0000   0.0000   0.0000   0.0000
     0.0000   0.0000   0.0000   0.0000   0.0000   0.0000   0.0000   0.0000
     0.0000   0.0000   0.0000   0.0000   0.0000   0.0000   0.0000   0.0000
     0.0000   0.0000   0.0000   0.0000   0.0000   0.0000   0.0000   0.0000
     0.0000   0.0000   0.0000   0.0000   0.0000   0.0000   0.0000   0.0000
     0.0000   0.0000   0.0000   0.0000   0.0000   0.0000   0.0000   0.0000
     0.0000   0.0000   0.0000   0.0000   0.0000   0.0000   0.0000   0.0000
     0.0000   0.0000   0.0000   0.0000   0.0000   0.0000   0.0000   0.0000
     0.0000   0.0000   0.0000   0.0000   0.0000   0.0000   0.0000   0.0000
     0.0000   0.0000   0.0000   0.0000   0.0000   0.0000   0.0000   0.0000
     0.0000   0.0000   0.0000   0.0000   0.0000   0.0000   0.0000   0.0000
     0.0000   0.0000   0.0000   0.0000   0.0000   0.0000   0.0000   0.0000
     0.0000   0.0000   0.0000   0.0000   0.0000   0.0000   0.0000   0.0000
     0.0000   0.0000   0.0000   0.0000   0.0000   0.0000   0.0000   0.0000
     0.0000   0.0000   0.0000   0.0000   0.0000   0.0000   0.0000   0.0000
     0.0000   0.0000   0.0000   0.0000   0.0000   0.0000   0.0000   0.0000
     0.0000   0.0000   0.0000   0.0000   0.0000   0.0000

          k = 0.2507 0.4342 0.0000 ( 12420 PWs)   bands (ev):

   -16.2318 -16.2288  -8.0465  -8.0448  -6.5107  -6.5033  -4.2739  -4.2739
     1.9454   1.9454   2.9487   2.9500   4.8861   4.8882   5.1026   5.1026
     5.2654   5.2662   5.7224   5.7225   5.8737   5.8748   6.4726   6.4727
     7.1795   7.1801   8.1152   8.1153   8.5336   8.5340   9.2907   9.2939
     9.6734   9.6734  10.0195  10.0198  10.4316  10.4317  10.4340  10.4343
    10.5973  10.5974  10.6790  10.6790  11.1848  11.1873  11.3233  11.3233
    11.4589  11.4621  11.5627  11.5627  11.9186  11.9188  12.5000  12.5001
    12.5073  12.5108  13.4603  13.4603  13.8206  13.8207  13.8384  13.8385
    13.9393  13.9426  14.8315  14.8319  15.0579  15.0580  16.0892  16.0892
    16.3377  16.3378  16.4936  16.4936  16.4991  16.5000  18.3697  18.3707
    18.5100  18.5101  19.0408  19.0408  19.2639  19.2655  19.3612  19.3613
    19.5572  19.5573  20.5896  20.6032  20.6882  20.6884  21.8480  21.8480
    22.1671  22.1671  22.7454  22.7461  23.1194  23.1194  23.3030  23.3043
    23.4600  23.4600  23.7942  23.7959  24.7624  24.7624  24.9952  24.9953
    25.5333  25.5337  25.7945  25.7945  25.8652  25.8655  25.9765  25.9777
    26.1076  26.1077  26.2985  26.3003  26.8373  26.8373  27.0215  27.0215
    27.0249  27.0256  27.2978  27.2985  27.7641  27.7647  27.8315  27.8315
    28.0292  28.0302  28.0834  28.0834  28.3125  28.3126  28.6564  28.6581
    28.9006  28.9006  28.9151  28.9165  29.4069  29.4069

     occupation numbers 
     1.0000   1.0000   1.0000   1.0000   1.0000   1.0000   1.0000   1.0000
     0.0000   0.0000   0.0000   0.0000   0.0000   0.0000   0.0000   0.0000
     0.0000   0.0000   0.0000   0.0000   0.0000   0.0000   0.0000   0.0000
     0.0000   0.0000   0.0000   0.0000   0.0000   0.0000   0.0000   0.0000
     0.0000   0.0000   0.0000   0.0000   0.0000   0.0000   0.0000   0.0000
     0.0000   0.0000   0.0000   0.0000   0.0000   0.0000   0.0000   0.0000
     0.0000   0.0000   0.0000   0.0000   0.0000   0.0000   0.0000   0.0000
     0.0000   0.0000   0.0000   0.0000   0.0000   0.0000   0.0000   0.0000
     0.0000   0.0000   0.0000   0.0000   0.0000   0.0000   0.0000   0.0000
     0.0000   0.0000   0.0000   0.0000   0.0000   0.0000   0.0000   0.0000
     0.0000   0.0000   0.0000   0.0000   0.0000   0.0000   0.0000   0.0000
     0.0000   0.0000   0.0000   0.0000   0.0000   0.0000   0.0000   0.0000
     0.0000   0.0000   0.0000   0.0000   0.0000   0.0000   0.0000   0.0000
     0.0000   0.0000   0.0000   0.0000   0.0000   0.0000   0.0000   0.0000
     0.0000   0.0000   0.0000   0.0000   0.0000   0.0000   0.0000   0.0000
     0.0000   0.0000   0.0000   0.0000   0.0000   0.0000   0.0000   0.0000
     0.0000   0.0000   0.0000   0.0000   0.0000   0.0000   0.0000   0.0000
     0.0000   0.0000   0.0000   0.0000   0.0000   0.0000   0.0000   0.0000
     0.0000   0.0000   0.0000   0.0000   0.0000   0.0000

          k = 0.2507 0.5307 0.0000 ( 12427 PWs)   bands (ev):

   -16.0726 -16.0686  -8.1153  -8.1113  -6.9474  -6.9411  -4.0146  -4.0145
     1.9530   1.9530   3.7626   3.7660   4.8223   4.8224   4.9407   4.9453
     6.5422   6.5426   6.6553   6.6553   6.9327   6.9330   7.6119   7.6119
     7.6414   7.6417   8.2944   8.2945   8.3747   8.3747   8.6748   8.6752
     9.0515   9.0515   9.1078   9.1091   9.6468   9.6468   9.8706   9.8706
    10.0775  10.0775  10.2191  10.2194  10.5266  10.5268  10.7788  10.7788
    10.9984  11.0033  11.3512  11.3512  11.8328  11.8332  11.9752  11.9752
    12.3535  12.3626  12.9053  12.9054  12.9119  12.9130  13.6161  13.6161
    13.7835  13.7864  14.5643  14.5656  14.6591  14.6591  15.7888  15.7888
    15.8855  15.8863  16.3142  16.3145  16.4274  16.4274  17.6313  17.6313
    17.6950  17.6951  18.9363  18.9363  19.1320  19.1327  19.5863  19.5894
    19.7397  19.7397  20.6031  20.6119  21.0649  21.0649  21.7085  21.7085
    21.7212  21.7257  22.4458  22.4470  23.1677  23.1685  23.2040  23.2040
    24.1267  24.1268  24.3405  24.3418  24.8479  24.8480  24.8896  24.8910
    25.6028  25.6029  25.6050  25.6050  25.8502  25.8508  26.2710  26.2711
    26.4894  26.4899  26.6354  26.6355  27.0952  27.0965  27.5291  27.5291
    27.5447  27.5454  28.1646  28.1648  28.2490  28.2491  28.8389  28.8389
    28.9309  28.9311  29.1285  29.1288  29.1451  29.1451  29.2633  29.2638
    29.9617  29.9617  30.1228  30.1228  30.5055  30.5055

     occupation numbers 
     1.0000   1.0000   1.0000   1.0000   1.0000   1.0000   1.0000   1.0000
     0.0000   0.0000   0.0000   0.0000   0.0000   0.0000   0.0000   0.0000
     0.0000   0.0000   0.0000   0.0000   0.0000   0.0000   0.0000   0.0000
     0.0000   0.0000   0.0000   0.0000   0.0000   0.0000   0.0000   0.0000
     0.0000   0.0000   0.0000   0.0000   0.0000   0.0000   0.0000   0.0000
     0.0000   0.0000   0.0000   0.0000   0.0000   0.0000   0.0000   0.0000
     0.0000   0.0000   0.0000   0.0000   0.0000   0.0000   0.0000   0.0000
     0.0000   0.0000   0.0000   0.0000   0.0000   0.0000   0.0000   0.0000
     0.0000   0.0000   0.0000   0.0000   0.0000   0.0000   0.0000   0.0000
     0.0000   0.0000   0.0000   0.0000   0.0000   0.0000   0.0000   0.0000
     0.0000   0.0000   0.0000   0.0000   0.0000   0.0000   0.0000   0.0000
     0.0000   0.0000   0.0000   0.0000   0.0000   0.0000   0.0000   0.0000
     0.0000   0.0000   0.0000   0.0000   0.0000   0.0000   0.0000   0.0000
     0.0000   0.0000   0.0000   0.0000   0.0000   0.0000   0.0000   0.0000
     0.0000   0.0000   0.0000   0.0000   0.0000   0.0000   0.0000   0.0000
     0.0000   0.0000   0.0000   0.0000   0.0000   0.0000   0.0000   0.0000
     0.0000   0.0000   0.0000   0.0000   0.0000   0.0000   0.0000   0.0000
     0.0000   0.0000   0.0000   0.0000   0.0000   0.0000   0.0000   0.0000
     0.0000   0.0000   0.0000   0.0000   0.0000   0.0000

          k = 0.3342 0.5789 0.0000 ( 12432 PWs)   bands (ev):

   -16.0157 -16.0113  -7.7539  -7.7477  -7.5336  -7.5288  -3.9222  -3.9222
     2.0971   2.0971   4.1638   4.1691   4.3956   4.3957   5.2382   5.2444
     6.7172   6.7178   7.5648   7.5648   8.0235   8.0241   8.1488   8.1491
     8.2502   8.2502   8.3196   8.3197   8.3732   8.3732   8.5215   8.5218
     8.6745   8.6751   8.9002   8.9002   9.2331   9.2341   9.3510   9.3510
     9.4905   9.4905   9.8213   9.8215  10.1169  10.1176  10.4690  10.4691
    10.8042  10.8095  11.2726  11.2726  11.4365  11.4365  11.7546  11.7547
    12.1865  12.1873  12.2780  12.2932  12.6647  12.6647  13.9186  13.9187
    14.0794  14.0794  14.1605  14.1657  14.3044  14.3045  14.7542  14.7549
    15.3245  15.3246  17.2318  17.2319  17.2476  17.2488  17.3352  17.3352
    17.4112  17.4114  17.7682  17.7687  18.1626  18.1628  20.1843  20.1948
    21.0019  21.0021  21.1255  21.1260  21.1744  21.1747  21.1987  21.1987
    21.2602  21.2605  22.3188  22.3281  23.1824  23.1825  23.2509  23.2561
    23.8901  23.8901  24.8671  24.8672  25.2423  25.2424  25.5513  25.5514
    25.8247  25.8248  26.2257  26.2257  26.2892  26.2927  26.4960  26.4991
    27.7631  27.7643  27.7922  27.7934  28.0594  28.0594  28.2854  28.2857
    28.7465  28.7465  28.8410  28.8410  28.8858  28.8858  28.8922  28.8923
    28.9382  28.9383  29.2033  29.2033  29.6164  29.6164  29.8001  29.8002
    29.9003  29.9005  29.9469  29.9470  29.9776  29.9779

     occupation numbers 
     1.0000   1.0000   1.0000   1.0000   1.0000   1.0000   1.0000   1.0000
     0.0000   0.0000   0.0000   0.0000   0.0000   0.0000   0.0000   0.0000
     0.0000   0.0000   0.0000   0.0000   0.0000   0.0000   0.0000   0.0000
     0.0000   0.0000   0.0000   0.0000   0.0000   0.0000   0.0000   0.0000
     0.0000   0.0000   0.0000   0.0000   0.0000   0.0000   0.0000   0.0000
     0.0000   0.0000   0.0000   0.0000   0.0000   0.0000   0.0000   0.0000
     0.0000   0.0000   0.0000   0.0000   0.0000   0.0000   0.0000   0.0000
     0.0000   0.0000   0.0000   0.0000   0.0000   0.0000   0.0000   0.0000
     0.0000   0.0000   0.0000   0.0000   0.0000   0.0000   0.0000   0.0000
     0.0000   0.0000   0.0000   0.0000   0.0000   0.0000   0.0000   0.0000
     0.0000   0.0000   0.0000   0.0000   0.0000   0.0000   0.0000   0.0000
     0.0000   0.0000   0.0000   0.0000   0.0000   0.0000   0.0000   0.0000
     0.0000   0.0000   0.0000   0.0000   0.0000   0.0000   0.0000   0.0000
     0.0000   0.0000   0.0000   0.0000   0.0000   0.0000   0.0000   0.0000
     0.0000   0.0000   0.0000   0.0000   0.0000   0.0000   0.0000   0.0000
     0.0000   0.0000   0.0000   0.0000   0.0000   0.0000   0.0000   0.0000
     0.0000   0.0000   0.0000   0.0000   0.0000   0.0000   0.0000   0.0000
     0.0000   0.0000   0.0000   0.0000   0.0000   0.0000   0.0000   0.0000
     0.0000   0.0000   0.0000   0.0000   0.0000   0.0000

     highest occupied, lowest unoccupied level (ev):    -3.9222   -1.0086

     Writing output data file ./AlN.save/

     init_run     :      0.29s CPU      0.32s WALL (       1 calls)
     electrons    :    267.52s CPU    269.94s WALL (       1 calls)

     Called by init_run:
     wfcinit      :      0.00s CPU      0.01s WALL (       1 calls)
     wfcinit:atom :      0.00s CPU      0.00s WALL (      19 calls)
     wfcinit:wfcr :      4.00s CPU      4.07s WALL (      19 calls)
     potinit      :      0.01s CPU      0.02s WALL (       1 calls)
     hinit0       :      0.25s CPU      0.26s WALL (       1 calls)

     Called by electrons:
     c_bands      :    267.52s CPU    269.94s WALL (       1 calls)
     v_of_rho     :      0.01s CPU      0.01s WALL (       1 calls)
     v_h          :      0.00s CPU      0.00s WALL (       1 calls)
     v_xc         :      0.01s CPU      0.01s WALL (       1 calls)

     Called by c_bands:
     init_us_2    :      0.00s CPU      0.00s WALL (      19 calls)
     cegterg      :    263.28s CPU    265.59s WALL (      66 calls)

     Called by sum_band:

     Called by *egterg:
     cdiaghg      :     65.15s CPU     65.33s WALL (    1104 calls)
     cegterg:over :     46.15s CPU     46.77s WALL (    1085 calls)
     cegterg:upda :     27.65s CPU     27.74s WALL (    1085 calls)
     cegterg:last :     64.52s CPU     64.69s WALL (     522 calls)
     h_psi        :     53.12s CPU     54.24s WALL (    1170 calls)
     g_psi        :      0.19s CPU      0.19s WALL (    1085 calls)

     Called by h_psi:
     h_psi:calbec :      4.22s CPU      4.34s WALL (    1170 calls)
     vloc_psi     :     43.94s CPU     44.80s WALL (    1170 calls)
     add_vuspsi   :      4.69s CPU      4.72s WALL (    1170 calls)

     General routines
     calbec       :      4.21s CPU      4.34s WALL (    1170 calls)
     fft          :      0.01s CPU      0.01s WALL (      14 calls)
     fftw         :     41.30s CPU     42.13s WALL (  326236 calls)
     davcio       :      0.01s CPU      0.05s WALL (      38 calls)

     Parallel routines
     fft_scatt_xy :      2.75s CPU      2.80s WALL (  326250 calls)
     fft_scatt_yz :     18.33s CPU     18.70s WALL (  326250 calls)

     PWSCF        :   4m29.92s CPU   4m33.71s WALL


   This run was terminated on:  13:31:58  15Apr2023            

=------------------------------------------------------------------------------=
   JOB DONE.
=------------------------------------------------------------------------------=
